/*--------------------------------*- C++ -*----------------------------------*\
| =========                 |                                                 |
| \\      /  F ield         | OpenFOAM: The Open Source CFD Toolbox           |
|  \\    /   O peration     | Version:  2412                                  |
|   \\  /    A nd           | Website:  www.openfoam.com                      |
|    \\/     M anipulation  |                                                 |
\*---------------------------------------------------------------------------*/
FoamFile
{
    version     2.0;
    format      ascii;
    arch        "LSB;label=32;scalar=64";
    class       volScalarField;
    location    "53";
    object      p;
}
// * * * * * * * * * * * * * * * * * * * * * * * * * * * * * * * * * * * * * //

dimensions      [0 2 -2 0 0 0 0];

internalField   nonuniform List<scalar> 
76360
(
2.3315153
2.2617573
2.4048188
2.257458
2.2022711
2.2792432
2.2281886
2.5109385
2.2744907
2.2141529
2.1560821
2.1988862
2.1913077
2.3165566
2.2303251
2.2009427
2.6294902
2.3076176
2.2181512
2.188092
2.1170971
2.1498204
2.1547868
2.2046323
2.1868509
2.1774304
2.366661
2.2423817
2.2023977
2.1788821
2.7467062
2.3523123
2.2312445
2.1904518
2.1686939
2.0837625
2.1102319
2.1200486
2.1477978
2.1498975
2.1492127
2.2173224
2.1871534
2.175726
2.1615473
2.4218006
2.264122
2.2108357
2.1802418
2.1606813
2.8531953
2.4011052
2.2527402
2.1979591
2.1702999
2.15415
2.0552611
2.0771324
2.0881194
2.1041693
2.1153333
2.1197319
2.1491053
2.1473597
2.1463818
2.139226
2.2340123
2.1926214
2.1779377
2.1607463
2.1467811
2.4754885
2.2911529
2.2265679
2.1858969
2.1614015
2.1466302
2.9425537
2.4478918
2.2785195
2.2107073
2.1745685
2.1554505
2.1434316
2.0305699
2.0496314
2.0595577
2.0688417
2.0837011
2.0908287
2.0992098
2.111133
2.1167038
2.1146661
2.1523459
2.1468507
2.14541
2.1372976
2.1285406
2.2520284
2.2017554
2.1847384
2.1624752
2.1462286
2.1346991
2.5224166
2.3190543
2.2464179
2.1963125
2.1643669
2.1471452
2.1361314
3.010487
2.4881258
2.3044779
2.2264534
2.1818809
2.1579935
2.1446379
2.1358227
2.0088702
2.0261056
2.0342317
2.0410415
2.0558102
2.063641
2.0598125
2.0782013
2.0878708
2.0894634
2.0949462
2.1071515
2.1142498
2.1125097
2.1077363
2.1564182
2.1478106
2.1464199
2.1363841
2.1273344
2.1191025
2.2685307
2.2125894
2.1946156
2.1675497
2.1469988
2.1344183
2.1253237
2.5586124
2.3439435
2.2669789
2.2094967
2.1701876
2.1487725
2.1365971
2.1286298
3.0542619
2.5185982
2.3272049
2.2425322
2.191052
2.1621425
2.14628
2.1369963
2.1309273
1.989644
2.0054264
2.0117716
2.0181423
2.0312924
2.0386796
2.0305385
2.0499569
2.0610145
2.0647224
2.0503244
2.0715966
2.0844257
2.0873688
2.0856658
2.0910609
2.103186
2.1120859
2.1104797
2.1063737
2.1009064
2.1599748
2.1496537
2.1488947
2.1370479
2.1265369
2.1184739
2.1114109
2.281
2.2227342
2.2055542
2.1747925
2.1498526
2.1347688
2.1252024
2.1184765
2.5813652
2.362846
2.2851842
2.2231
2.1777406
2.1519987
2.1375173
2.1290763
2.1237923
3.0724373
2.5372015
2.3441307
2.2565087
2.2003986
2.1672581
2.1486184
2.1381474
2.1320881
2.1285292
1.9725829
1.9870199
1.9918472
1.9983081
2.0095758
2.0160513
2.0076289
2.0256845
2.0365523
2.0411708
2.0186947
2.0421354
2.057096
2.0628354
2.0633042
2.0406424
2.0639658
2.0801135
2.0847728
2.0843261
2.0811478
2.08704
2.0992718
2.1100677
2.1086652
2.1048259
2.1001715
2.0949974
2.161692
2.1512447
2.1520084
2.1388489
2.1267246
2.1179048
2.1111138
2.1056243
2.2875367
2.2300501
2.2153522
2.1825896
2.1540363
2.1362806
2.1252734
2.1184361
2.114008
2.5890807
2.3737276
2.2986302
2.2349067
2.1854964
2.1561525
2.139219
2.1295937
2.1242317
2.1214209
3.0646178
2.5427224
2.3535136
2.2664431
2.2082454
2.1722734
2.1512799
2.1394398
2.1329782
2.1296853
2.1285292
1.9575109
1.9705918
1.9742168
1.9807106
1.9902785
1.9957153
1.9882711
2.0043967
2.0144609
2.0192089
1.9952486
2.0176173
2.0326034
2.0396063
2.0413822
2.0060223
2.0325782
2.0514982
2.0599526
2.0620768
2.0606704
2.0309136
2.0556827
2.0749636
2.0814263
2.0823873
2.0804021
2.0768907
2.0823158
2.095083
2.1080471
2.1069846
2.1033118
2.0990718
2.094654
2.0903952
2.1605264
2.1513763
2.1545133
2.1409621
2.1275551
2.1177812
2.1106372
2.1055104
2.1017795
2.2869683
2.2329532
2.2221331
2.1892407
2.1584148
2.1384626
2.1258573
2.1183209
2.1140106
2.1118039
2.5811469
2.3753736
2.3056576
2.2431201
2.1919184
2.1602217
2.1412604
2.1303854
2.1245324
2.1218581
2.1214209
3.0310887
2.5347426
2.3543804
2.2709844
2.2131895
2.1760547
2.1535682
2.1406247
2.1336941
2.1304619
2.1296853
2.1309273
1.9443289
1.9559948
1.958724
1.9649653
1.9731625
1.9776119
1.9712279
1.9855542
1.9946362
1.9990496
1.9760384
1.9964317
2.010686
2.0180195
2.0203997
1.9815567
2.0074158
2.0264601
2.0366884
2.0403437
2.0401383
1.9930526
2.0217711
2.0443117
2.0556152
2.0599306
2.0599769
2.0578081
2.0211929
2.0469792
2.0692152
2.0773906
2.0797418
2.0789849
2.0765426
2.073421
2.0764333
2.0901499
2.105483
2.1051568
2.1017394
2.0977495
2.0938278
2.0902858
2.0872713
2.1558891
2.1490886
2.1552333
2.1423149
2.1283576
2.1178491
2.1101748
2.1050718
2.1017641
2.099864
2.2789078
2.2304857
2.2245461
2.1933065
2.1617662
2.1405211
2.126617
2.1183017
2.1137897
2.1118251
2.1118039
2.5579405
2.3673588
2.3053509
2.2464794
2.1957113
2.1631445
2.1429513
2.1311196
2.1248162
2.122064
2.1218581
2.1237923
2.9729411
2.5136663
2.3464557
2.269384
2.2142327
2.177617
2.1547156
2.1412209
2.1340419
2.1309212
2.1304619
2.1320881
2.1358227
1.932951
1.9431637
1.9452805
1.9508907
1.9580793
1.9617164
1.955951
1.9688597
1.9769974
1.9808342
1.9592888
1.97777
1.9911089
1.9982509
2.000697
1.9621395
1.9860938
2.0043788
2.0152073
2.0195987
2.0200506
1.9672251
1.9955402
2.018218
2.0318356
2.0381525
2.039549
2.0383335
1.9802836
2.0102532
2.0359584
2.049908
2.0564939
2.0583823
2.0574965
2.0553131
2.0115368
2.0379674
2.0628419
2.0727344
2.0764275
2.0767947
2.0754798
2.0733225
2.0710016
2.0691874
2.0840722
2.1017969
2.1026202
2.0997899
2.0961106
2.0925358
2.0896328
2.0872916
2.0856962
2.1476883
2.1438367
2.1532933
2.141955
2.1283082
2.1176044
2.1095392
2.1043561
2.1013429
2.0998906
2.099864
2.2637562
2.2223765
2.221839
2.1937581
2.1630367
2.1415825
2.1269953
2.1181195
2.1134214
2.111556
2.1118251
2.114008
2.520796
2.3501129
2.2974552
2.2442862
2.1959538
2.1640034
2.1435576
2.1312983
2.1248006
2.1221205
2.122064
2.1242317
2.1286298
2.8923132
2.4806315
2.3301024
2.2614667
2.2108343
2.1762563
2.1540429
2.1406966
2.1336577
2.1308904
2.1309212
2.1329782
2.1369963
2.1434316
1.9232031
1.9320531
1.9338294
1.9384196
1.944947
1.9480665
1.9421817
1.9541262
1.9615138
1.9647105
1.944221
1.9612387
1.9737474
1.9804308
1.9825341
1.9453861
1.9674028
1.9847729
1.9955989
2.0001628
2.0007772
1.9472687
1.9737857
1.9956466
2.0101319
2.0174638
2.0196024
2.0189282
1.9529717
1.9826322
2.0083152
2.0250892
2.0342349
2.0378912
2.0380903
2.036584
1.9681743
1.9985264
2.0267737
2.0431078
2.0518455
2.0555587
2.0562961
2.0552514
2.0535083
2.0020976
2.0287312
2.055739
2.0672889
2.0723788
2.073831
2.0735387
2.0724979
2.0710443
2.0697638
2.0606722
2.0766709
2.0965643
2.0988622
2.0969813
2.0938829
2.0906905
2.088341
2.0867377
2.0857728
2.0856962
2.136286
2.1355509
2.1482309
2.139202
2.1266866
2.1164346
2.1083657
2.1032089
2.1004694
2.0994746
2.0998906
2.1017795
2.2426339
2.2090415
2.2138341
2.1900262
2.1614774
2.1408845
2.1263745
2.117365
2.1126815
2.1110277
2.111556
2.1140105
2.1184765
2.4719214
2.3247853
2.2823131
2.2363825
2.1921515
2.1621491
2.1424395
2.1304016
2.1240935
2.1217638
2.1221205
2.1245324
2.1290763
2.1361314
2.7924237
2.4374409
2.306302
2.2475951
2.2029162
2.1716148
2.1510725
2.1385825
2.1321486
2.130057
2.1308904
2.1336941
2.1381474
2.1446379
2.1541499
1.9146241
1.9225544
1.9242782
1.9275255
1.9337112
1.9367832
1.9298272
1.941252
1.948223
1.9508948
1.9304556
1.9465939
1.9585429
1.9647065
1.9661585
1.9302339
1.9507972
1.9674169
1.97798
1.9822947
1.9826049
1.9301962
1.9548124
1.9757659
1.9904192
1.9981316
2.0004982
1.9999446
1.9322382
1.9601569
1.9848605
2.0027833
2.0132844
2.0179538
2.0187749
2.0176501
1.9394903
1.9693945
1.9972857
2.0167983
2.028639
2.0346386
2.0368286
2.0365791
2.0352519
1.9571712
1.9870469
2.0170293
2.035354
2.0461028
2.051545
2.0538631
2.054321
2.0535906
2.0525674
1.9931602
2.0194294
2.0478587
2.0608968
2.0673838
2.0699919
2.0706928
2.0707128
2.0703611
2.0698686
2.0697638
2.0512822
2.0680517
2.0896176
2.093547
2.092911
2.0906956
2.0880843
2.0863216
2.0854381
2.0852619
2.0857728
2.0872713
2.1225145
2.1246139
2.1400087
2.1337125
2.1229968
2.1138062
2.106215
2.1013586
2.0990024
2.0985248
2.0994746
2.1017641
2.1056243
2.2173255
2.191482
2.20089
2.1820219
2.1567036
2.1378975
2.1242163
2.115594
2.1112446
2.1100292
2.1110277
2.1137897
2.1184361
2.1253237
2.4144895
2.2931587
2.2608822
2.2231313
2.1842466
2.1572599
2.1391553
2.1279823
2.1223027
2.1206484
2.1217638
2.1248162
2.1295937
2.1365971
2.1466302
2.6778512
2.3866719
2.2766531
2.2286507
2.1908454
2.1637009
2.1455925
2.1345626
2.129175
2.128092
2.130057
2.1340419
2.1394398
2.14628
2.1554505
2.1686939
1.9060143
1.9143472
1.916361
1.9181444
1.9242824
1.9280888
1.9188707
1.9301828
1.9372489
1.9397463
1.9178415
1.9337065
1.9455299
1.9513097
1.9518713
1.9161357
1.9359459
1.9522153
1.9625138
1.9662518
1.9657806
1.9146449
1.9378626
1.9581714
1.9727437
1.9804092
1.9825254
1.9816447
1.9145735
1.9406263
1.9643737
1.9826648
1.9937992
1.9988996
1.999901
1.9988309
1.9178729
1.9459996
1.9726294
1.9934873
2.0070428
2.0144209
2.0174961
2.017714
2.016611
1.9274258
1.9565176
1.9856666
2.007312
2.0215835
2.0298173
2.0340361
2.0355962
2.0353891
2.0345401
1.947727
1.9762665
2.0069982
2.0267871
2.0392797
2.0463692
2.0501978
2.0521435
2.052824
2.0527143
2.0525674
1.9851525
2.0103569
2.0392922
2.0535115
2.0613029
2.0651016
2.06685
2.0679189
2.0686645
2.0692498
2.0698686
2.0710016
2.041703
2.0586197
2.0810689
2.0865715
2.0873443
2.0862506
2.0844501
2.0834129
2.0832977
2.0839548
2.0852619
2.0872916
2.0903952
2.1076424
2.1118439
2.1289999
2.1255154
2.117025
2.1093698
2.1027091
2.0984881
2.0967242
2.0969035
2.0985248
2.1013429
2.1055104
2.1114109
2.1902072
2.1712599
2.183902
2.1701285
2.1487173
2.1323823
2.1201625
2.1124269
2.1087716
2.1082722
2.1100292
2.1134214
2.1183209
2.1252024
2.1346991
2.3527519
2.2577368
2.2347211
2.205395
2.1726075
2.1493615
2.1335193
2.1237481
2.1191005
2.1184415
2.1206484
2.1248006
2.1303854
2.1375173
2.1471452
2.1606813
2.555053
2.3318205
2.2433779
2.2060069
2.1754076
2.1528823
2.1376825
2.1285326
2.1245243
2.1247175
2.128092
2.1336577
2.1406247
2.1486184
2.1579934
2.1702999
2.188092
1.8943017
1.9065658
1.9092978
1.9100621
1.9164129
1.9223288
1.9092943
1.9208509
1.9288246
1.9318802
1.9063417
1.9225376
1.9348739
1.9406385
1.9401065
1.9028337
1.9226651
1.9392076
1.949478
1.9523635
1.9505494
1.8998744
1.9224746
1.9426744
1.9572724
1.9645864
1.9659419
1.9642137
1.898342
1.9230417
1.946214
1.9646412
1.9759864
1.9810152
1.9817348
1.9803458
1.899427
1.9256833
1.9512117
1.9725901
1.9870726
1.9951749
1.998633
1.9989774
1.9978741
1.9049416
1.932133
1.9596553
1.9827087
1.9989826
2.0089809
2.0144359
2.0167038
2.0168111
2.0160394
1.9173545
1.944651
1.9739836
1.997006
2.0132591
2.023541
2.0297053
2.0331156
2.0345787
2.0347426
2.0345401
1.9402955
1.9666526
1.997006
2.0176109
2.031457
2.040016
2.0452956
2.0486868
2.0507976
2.0520235
2.0527143
2.0535083
1.9786138
2.0019585
2.0302978
2.0452397
2.0541259
2.0590649
2.0618865
2.0640357
2.0658874
2.0675919
2.0692498
2.0710443
2.073421
2.0328295
2.0490614
2.0713165
2.0780905
2.0802525
2.0803961
2.0795845
2.079424
2.0801822
2.0817511
2.0839548
2.0867377
2.0902858
2.0949974
2.0932191
2.0984607
2.1159866
2.1150068
2.1088645
2.1030112
2.0976217
2.0943347
2.0933943
2.0944177
2.0969035
2.1004694
2.1050718
2.1111138
2.1191025
2.1640812
2.1504515
2.1642694
2.1551569
2.1378967
2.1244105
2.1140888
2.1076315
2.104983
2.1054671
2.1082722
2.1126815
2.1183017
2.1252734
2.1344183
2.1467811
2.2920658
2.2217817
2.2059726
2.1844966
2.1579988
2.1388217
2.1256246
2.1176137
2.1142906
2.1148724
2.1184415
2.1240935
2.1311196
2.139219
2.1487725
2.1614015
2.178882
2.4332205
2.2774934
2.2093373
2.1814953
2.1577646
2.1398569
2.1277102
2.1206257
2.1181624
2.119771
2.1247175
2.1321486
2.1412209
2.1512799
2.1621425
2.1745684
2.1904518
2.2141529
1.8722012
1.8968335
1.9007544
1.9026831
1.9094386
1.9199219
1.9009855
1.9130837
1.9233262
1.928369
1.8959393
1.9130833
1.926926
1.9334
1.931552
1.8902103
1.9109008
1.928642
1.9393988
1.9411275
1.9371895
1.8854827
1.9083569
1.9292709
1.9443502
1.9510671
1.9510187
1.9477656
1.8826191
1.906782
1.9300343
1.948822
1.9601537
1.9645844
1.9644698
1.9623078
1.8823089
1.9072189
1.932138
1.9538263
1.9688438
1.977163
1.980507
1.9805937
1.9792233
1.8856159
1.9108943
1.9370867
1.9607115
1.9781631
1.989229
1.9953657
1.9979566
1.998148
1.9973356
1.894108
1.9193348
1.9466488
1.970995
1.9894152
2.0017855
2.0095503
2.0139756
2.0159713
2.0163039
2.0160394
1.9097579
1.9343864
1.962761
1.9862986
2.0039301
2.0159234
2.0238906
2.0290966
2.0322878
2.0340133
2.0347426
2.0352519
1.9352902
1.9586794
1.9874522
2.0081203
2.0228194
2.0325599
2.0391507
2.0439325
2.0474542
2.0500666
2.0520235
2.0535906
2.0553131
1.9741102
1.9947902
2.0213102
2.0363563
2.0459935
2.0519111
2.0557567
2.0589817
2.0619579
2.0648172
2.0675919
2.0703611
2.0733225
2.0768907
2.0256321
2.0402654
2.0610311
2.0685135
2.0718297
2.0731625
2.0734132
2.0742257
2.0759512
2.0785298
2.0817511
2.0854381
2.0896328
2.094654
2.1009064
2.0808609
2.0859494
2.1021036
2.1029067
2.098905
2.0948726
2.0909235
2.0887659
2.0888252
2.0908639
2.0944177
2.0990024
2.1043561
2.1106372
2.1184739
2.1285406
2.1418337
2.1314969
2.143836
2.1383005
2.1249613
2.114357
2.106124
2.1011685
2.0997279
2.1013828
2.1054671
2.1112446
2.1181195
2.1258573
2.1347688
2.1462286
2.1615473
2.2387148
2.1892374
2.1773324
2.1621771
2.141534
2.1263202
2.115839
2.1097221
2.1078531
2.1097914
2.1148724
2.1223027
2.1312983
2.1412604
2.1519986
2.1643669
2.1802418
2.2009427
2.3256712
2.2296029
2.1780054
2.1573462
2.1393937
2.1256032
2.116302
2.1112096
2.1102578
2.1132532
2.119771
2.129175
2.1406966
2.1535682
2.1672581
2.1818808
2.1979591
2.2181512
2.2574579
1.8787094
1.8215975
1.8859674
1.8943293
1.9016247
1.9202766
1.8935614
1.9064234
1.9213844
1.93105
1.8865535
1.9053111
1.9223255
1.9308623
1.92735
1.8781594
1.9006785
1.9210958
1.9332883
1.9333694
1.926041
1.8712196
1.8953614
1.9182361
1.9346967
1.9405194
1.9380868
1.9323262
1.8668592
1.8914042
1.9156944
1.935552
1.9467964
1.9499402
1.9482364
1.9447052
1.8654508
1.8898275
1.9148644
1.937176
1.9526308
1.9606838
1.9633267
1.9626812
1.9607162
1.8674865
1.8913953
1.9168374
1.9408283
1.9591097
1.9707723
1.9770825
1.9795833
1.9795875
1.9785904
1.873873
1.8971352
1.922859
1.9477073
1.9674567
1.9812053
1.9899941
1.9950177
1.9972883
1.9976721
1.9973356
1.8858857
1.90829
1.9342978
1.9589404
1.9787537
1.9930438
2.0029229
2.0094584
2.0134496
2.0155456
2.0163039
2.016611
1.9049809
1.9262319
1.9525246
1.9756541
1.993952
2.0071818
2.0166814
2.0235622
2.0284491
2.0318113
2.0340133
2.0353891
2.036584
1.9330175
1.9527899
1.9788064
1.9987051
2.0136608
2.0241907
2.031853
2.0378912
2.0427699
2.0467724
2.0500666
2.052824
2.0552513
2.0578081
1.9721205
1.989434
2.0129055
2.0272943
2.0372002
2.0438116
2.048532
2.0527532
2.0568247
2.0608585
2.0648172
2.0686645
2.0724979
2.0765426
2.0811478
2.0209776
2.0331791
2.0510838
2.0584671
2.0624813
2.0647737
2.0660202
2.0678043
2.0705257
2.0741754
2.0785298
2.0832977
2.088341
2.0938278
2.1001715
2.1077363
2.0719583
2.075835
2.0887406
2.0902067
2.0877999
2.0853419
2.0827984
2.0818164
2.082946
2.0860914
2.0908639
2.0967242
2.1032088
2.1101748
2.1179048
2.1273344
2.139226
2.1259245
2.1168528
2.1247777
2.1210724
2.110924
2.1028687
2.0966423
2.0932093
2.093023
2.0959083
2.1013828
2.1087716
2.117365
2.126617
2.1362805
2.1469988
2.1607463
2.1774304
2.2000173
2.1643305
2.1519302
2.1405215
2.124613
2.1127979
2.1047752
2.1004414
2.0999641
2.1032109
2.1097914
2.1191005
2.1304016
2.1429513
2.1561525
2.1701876
2.1858969
2.2023977
2.2281886
2.2520503
2.1951679
2.1532979
2.1360579
2.1219888
2.1113053
2.10429
2.100857
2.1011781
2.1053499
2.1132532
2.1245243
2.1385825
2.1547156
2.1722734
2.1910519
2.2107073
2.2312445
2.2744907
2.3315153
1.8797913
1.8325036
1.8890893
1.8587209
1.8078192
1.8455351
1.808868
1.7356667
1.916308
1.8699053
1.8996185
1.8522901
1.9080433
1.9039052
1.8858523
1.8999193
1.9231113
1.9451658
1.9259589
1.9407841
1.8778755
1.8990268
1.9222916
1.9355587
1.9294121
1.8664798
1.8920344
1.9176825
1.9330738
1.9304977
1.9175033
1.8568101
1.8834164
1.910289
1.9297924
1.9341466
1.9275865
1.917767
1.8506808
1.8765928
1.9033422
1.9256506
1.936818
1.9375458
1.9330919
1.9273588
1.848198
1.8729138
1.8990378
1.9228579
1.9389478
1.9461408
1.9472591
1.9452377
1.9422559
1.8494036
1.8727313
1.8981715
1.9228562
1.9419948
1.9538881
1.9598035
1.9617104
1.9611908
1.9598321
1.8546715
1.8765408
1.9013183
1.9264523
1.9472113
1.961928
1.9712675
1.9764683
1.9787236
1.9790146
1.9785904
1.8647471
1.8851665
1.9093595
1.9343316
1.9554962
1.9713811
1.9825983
1.9900405
1.9945568
1.9968908
1.9976721
1.9978741
1.8805965
1.8995434
1.9232391
1.9471603
1.9675056
1.9830952
1.9947159
2.0031956
2.0091534
2.0131222
2.0155455
2.0168111
2.0176501
1.9031807
1.9205674
1.94378
1.9655696
1.98376
1.9976487
2.0082838
2.0165992
2.0230703
2.0280552
2.0318113
2.0345787
2.0365791
2.0383335
1.9335912
1.9493253
1.9715643
1.9898278
2.0043716
2.0152095
2.0236063
2.0306711
2.036771
2.0421156
2.0467724
2.0507976
2.054321
2.0574964
2.0606704
1.9728938
1.9863754
2.0057296
2.018605
2.0281741
2.0350754
2.0404118
2.0454551
2.0505144
2.0556801
2.0608585
2.0658875
2.0707128
2.0754798
2.0804021
2.0856658
2.0194192
2.0286021
2.0424395
2.0487369
2.0527924
2.055635
2.0576561
2.0602857
2.0639332
2.0686341
2.0741754
2.0801822
2.0863216
2.0925358
2.0990718
2.1063736
2.1146661
2.0673864
2.0693218
2.0773857
2.0780869
2.0764144
2.0750213
2.0736336
2.0737024
2.0758343
2.08006
2.0860914
2.0933943
2.1013586
2.1095392
2.1177812
2.1265369
2.1372976
2.1492127
2.1188614
2.1082831
2.1093628
2.1052022
2.0970174
2.0908146
2.0862332
2.0841278
2.0850679
2.0890878
2.0959083
2.104983
2.115594
2.1269953
2.1384626
2.1498526
2.1624751
2.175726
2.1913077
2.1822671
2.1510229
2.1329827
2.1218042
2.1088191
2.0993834
2.0932375
2.0903338
2.0909913
2.0953233
2.1032109
2.1142906
2.1279823
2.1435576
2.1602216
2.1777406
2.1963125
2.2108357
2.2303251
2.2617573
2.1779287
2.1388889
2.1201062
2.1072888
2.0982396
2.0926324
2.0902923
2.0914608
2.0964286
2.1053499
2.1181624
2.1345626
2.1540429
2.1760547
2.2003986
2.2264534
2.2527402
2.3076176
2.4048188
1.8737126
1.8384001
1.8911006
1.8588304
1.8128096
1.8557433
1.8144295
1.7421751
1.9190018
1.8623423
1.8544869
1.9055995
1.9117461
1.9097257
1.7594749
1.8157223
1.7611033
1.8128002
1.7087965
1.7100661
1.6406012
1.8791872
1.9338626
1.8752898
1.9288561
1.8689531
1.8938886
1.9283644
1.9418991
1.9313477
1.9497842
1.9657422
1.9456854
1.977734
1.9560057
1.938153
1.8547007
1.8849132
1.920475
1.9428126
1.9352137
1.9119337
1.8417914
1.8724178
1.9068846
1.932571
1.9341364
1.9200673
1.9036224
1.8336592
1.8620441
1.8935474
1.9209108
1.9319666
1.9281054
1.9189598
1.9098269
1.8300813
1.8559973
1.8845246
1.911548
1.9288233
1.9341766
1.9324353
1.9281022
1.9235417
1.8306535
1.8541919
1.8805153
1.9067748
1.9272199
1.9389934
1.9437351
1.9443541
1.9428676
1.9409226
1.8353394
1.8565715
1.8811399
1.9068367
1.9286912
1.9441555
1.9535728
1.9584574
1.9603438
1.9603633
1.9598321
1.8444492
1.8634857
1.8865495
1.9116279
1.9338312
1.9509549
1.9630995
1.971058
1.9758057
1.9782236
1.9790146
1.9792233
1.8585611
1.8755702
1.897323
1.9213448
1.9429407
1.960209
1.9733959
1.9830653
1.9898218
1.994259
1.9968908
1.998148
1.9988309
1.8783308
1.8934535
1.9140173
1.9362537
1.9562394
1.972403
1.9852372
1.9953342
2.0031057
2.0089299
2.0131222
2.0159713
2.017714
2.0189282
1.9042714
1.9175907
1.9369669
1.9565418
1.9738371
1.987746
1.9990213
2.0084132
2.0162427
2.0227467
2.0280552
2.0322878
2.0355962
2.0380903
2.0401382
1.9368407
1.9484311
1.9661858
1.9819812
1.9954087
2.0060087
2.0147189
2.0224879
2.0295803
2.0361311
2.0421156
2.0474543
2.0521435
2.0562961
2.0599769
2.0633042
1.9763183
1.9858406
2.0004001
2.0109021
2.0194426
2.0261294
2.0317182
2.0373091
2.0431555
2.049324
2.0556801
2.061958
2.0679189
2.0735387
2.078985
2.0843261
2.0894634
2.0210367
2.026919
2.0360022
2.0401826
2.0434717
2.0462999
2.0487249
2.0519408
2.0563283
2.0619544
2.0686341
2.0759512
2.0834129
2.0906905
2.0977495
2.1048258
2.1125097
2.1197318
2.0681099
2.0667682
2.0693538
2.067797
2.0657431
2.064675
2.0639879
2.0648096
2.0677275
2.0728687
2.08006
2.0888252
2.0984881
2.1083657
2.1178491
2.1267245
2.1363841
2.1463817
2.1547868
2.1220774
2.106851
2.0994075
2.0924459
2.0845848
2.0792091
2.0756501
2.07447
2.076236
2.0811347
2.0890878
2.0997279
2.1124269
2.1263745
2.1405211
2.1540363
2.1675497
2.1779376
2.1868509
2.2022711
2.1487567
2.1232525
2.1081809
2.0957475
2.0872833
2.0821465
2.0801033
2.0814641
2.0864961
2.0953233
2.1078531
2.1237481
2.1424395
2.1631445
2.1854964
2.2094967
2.2265679
2.2423817
2.2792432
2.1346823
2.1112908
2.0967889
2.087605
2.082301
2.0803119
2.0817598
2.0870093
2.0964286
2.1102578
2.1285326
2.1510725
2.177617
2.2082454
2.2425322
2.2785195
2.3523123
2.5109385
1.8564543
1.8364715
1.8882745
1.866006
1.8167032
1.8619405
1.8165051
1.7445977
1.9264545
1.8628253
1.8554188
1.9158441
1.9206651
1.9216594
1.7624978
1.8143834
1.7630879
1.8120989
1.7103442
1.7096296
1.641468
1.8767411
1.8781785
1.9359618
1.9409126
1.7572048
1.8273692
1.7540341
1.8235724
1.6609016
1.7041531
1.7021344
1.6621814
1.6143854
1.6155192
1.551767
1.9194255
1.9675138
1.9152048
1.963925
1.8417094
1.8792826
1.9325583
1.952677
1.9471712
1.967918
1.9676634
1.9607831
1.9788516
1.9731214
1.9493801
1.9791113
1.9845843
1.9808139
1.9558106
1.9610209
1.9352571
1.9072483
1.8252868
1.8620823
1.9107442
1.9491576
1.9449144
1.9161544
1.8886701
1.8151396
1.8472785
1.8875454
1.9250085
1.9355758
1.9226463
1.9054328
1.8912132
1.8106029
1.8385667
1.8714198
1.9048448
1.9243648
1.9258798
1.9189075
1.9108616
1.9039849
1.810732
1.8351894
1.8634404
1.8928656
1.9156705
1.9268217
1.9291087
1.9273886
1.9243298
1.9215081
1.8151558
1.8364552
1.8615834
1.8885769
1.9120603
1.9282133
1.9371184
1.9410177
1.942067
1.9415853
1.9409226
1.8238778
1.84225
1.8648921
1.8902818
1.913595
1.9318418
1.9445777
1.9526302
1.9572637
1.9595801
1.9603633
1.9607162
1.8371542
1.8528497
1.8733598
1.8972703
1.9198052
1.938432
1.9528372
1.9633611
1.9706473
1.9754007
1.9782236
1.9795875
1.9803458
1.8553828
1.8687053
1.8873362
1.9094434
1.9304929
1.9482866
1.9627914
1.9742855
1.9831037
1.9896393
1.994259
1.9972883
1.9989774
1.9999446
1.8789161
1.890151
1.9070424
1.9267552
1.9455287
1.9615071
1.974924
1.9861675
1.9954497
2.0029831
2.0089299
2.0134496
2.0167038
2.0187749
2.0200505
1.9078806
1.9172549
1.9324062
1.9490223
1.9646733
1.9779484
1.9893068
1.9993234
2.0081747
2.0159801
2.0227467
2.0284491
2.0331156
2.0368286
2.039549
2.0413822
1.9422669
1.9499497
1.9630054
1.9756377
1.9872561
1.9970425
2.0055855
2.0136569
2.0214239
2.0289494
2.0361311
2.0427699
2.0486868
2.0538631
2.0583823
2.0620768
2.0647224
1.9818812
1.987637
1.997361
2.0047827
2.0115792
2.0174832
2.0228762
2.0286477
2.0349861
2.0419313
2.049324
2.0568248
2.0640357
2.0706927
2.0767947
2.0823873
2.0873688
2.0908286
2.025813
2.0278293
2.0323764
2.0336238
2.0352726
2.0374155
2.0397512
2.0431724
2.0479962
2.0543055
2.0619544
2.0705257
2.079424
2.0880843
2.0961106
2.1033117
2.1104797
2.1167038
2.1200486
2.074285
2.0682781
2.0652512
2.0604609
2.0568002
2.0551501
2.05454
2.0556633
2.0590109
2.0647655
2.0728687
2.082946
2.0943347
2.106215
2.1176044
2.1275551
2.1370479
2.14541
2.1498975
2.1560821
2.1113262
2.0960184
2.0842118
2.0749019
2.0691046
2.0657355
2.0649036
2.0670445
2.0724224
2.0811347
2.093023
2.1076315
2.1242163
2.1415825
2.1584148
2.1747925
2.1847383
2.1871534
2.1988862
2.1216438
2.1012347
2.086735
2.0776189
2.0724314
2.0705207
2.0720207
2.0772423
2.0864961
2.0999641
2.1176136
2.1391553
2.1640034
2.1919184
2.2231
2.2464179
2.264122
2.3165566
2.1087259
2.091231
2.0802821
2.0741296
2.0716786
2.0727683
2.0777113
2.0870093
2.1011781
2.1206257
2.1455925
2.1762563
2.2131895
2.2565086
2.3044779
2.4011052
2.6294902
1.8245565
1.8215705
1.8738378
1.8688714
1.815834
1.8602373
1.8113484
1.740517
1.9354207
1.8613686
1.8500979
1.9280931
1.9265809
1.9305749
1.7622752
1.813016
1.7606714
1.8102428
1.7073852
1.7041298
1.6385419
1.8828748
1.8867008
1.9564134
1.9674456
1.7506726
1.8213623
1.7451414
1.8181988
1.6622967
1.6988634
1.6929131
1.661185
1.6152923
1.61394
1.5507622
1.9199295
1.9279981
1.9769541
1.9901914
1.7554552
1.8234637
1.8736522
1.8353744
1.8686841
1.7474824
1.8250737
1.8231444
1.8665897
1.8629736
1.655574
1.6985372
1.6550757
1.6935659
1.5705064
1.6104388
1.6107989
1.5715322
1.5282031
1.529106
1.4698909
1.9191543
1.9013504
1.9701339
1.9031098
1.909989
1.9716151
1.8056203
1.8521197
1.9260498
1.9698434
1.9626662
1.9887227
1.9931034
1.9945181
2.0089837
2.0143804
1.9718214
1.9832502
1.9965621
2.0144032
1.9780665
1.9620702
1.9528392
1.9141301
1.9832354
1.99484
1.9796035
1.997839
1.9382865
1.9595823
1.9559404
1.9102274
1.8694577
1.8903473
1.876602
1.794019
1.8312739
1.8876583
1.9457632
1.9544022
1.9225969
1.8912814
1.8698109
1.7890655
1.8198658
1.8600043
1.9061118
1.9297434
1.9230127
1.90646
1.8926556
1.8825712
1.7891387
1.8151162
1.8465834
1.8819435
1.9092476
1.9187068
1.9161722
1.9104559
1.9050089
1.9009457
1.7936258
1.8155617
1.8420218
1.8715199
1.8977834
1.9147173
1.9221809
1.9240695
1.9236226
1.9223376
1.9215081
1.8023492
1.8206779
1.8435568
1.8698065
1.8946824
1.9141729
1.927173
1.9347817
1.9388529
1.9408326
1.9415853
1.9422558
1.815364
1.8304201
1.8503518
1.8742949
1.8977901
1.9176999
1.9331052
1.9441694
1.9516892
1.9565836
1.9595801
1.9611908
1.9623077
1.8328516
1.8449992
1.8623794
1.8841767
1.9059886
1.9251161
1.9409914
1.9536056
1.9632451
1.9703628
1.9754007
1.9787236
1.9805937
1.9816446
1.8550121
1.8646749
1.8797983
1.899205
1.9188182
1.936277
1.9513407
1.9640793
1.9745868
1.9830441
1.9896393
1.9945568
1.9979567
1.999901
2.0007771
1.8819094
1.8895
1.9025446
1.9190948
1.9359006
1.9509655
1.9642946
1.9761149
1.9864724
1.9954242
2.0029831
2.0091534
2.0139756
2.017496
2.0196023
2.0203997
1.9133688
1.91921
1.9302248
1.9433739
1.9567231
1.9687423
1.9796083
1.9897362
1.9991844
2.0079657
2.01598
2.0230703
2.0290967
2.034036
2.0378912
2.0403437
2.0411708
1.9490947
1.9533597
1.9621073
1.9711794
1.9803775
1.988787
1.9966572
2.0045743
2.0126225
2.0208023
2.0289494
2.0367711
2.0439325
2.0501977
2.0555587
2.0599307
2.0628353
2.063641
1.9888816
1.9910874
1.9966943
2.0007239
2.0051345
2.0096766
2.0143778
2.0198937
2.026346
2.0337483
2.0419313
2.0505144
2.0589816
2.0668499
2.0738311
2.0797418
2.0847727
2.0878708
2.0881193
2.0326771
2.0310697
2.0314608
2.0296693
2.028897
2.0296472
2.0313263
2.0344816
2.0393383
2.0459797
2.0543055
2.0639332
2.0742256
2.0844501
2.093883
2.1017393
2.1086652
2.1142498
2.1153333
2.1170971
2.0733434
2.0651773
2.0566785
2.0504551
2.0472741
2.0460124
2.0468768
2.0501869
2.0561354
2.0647655
2.0758343
2.0887658
2.1027092
2.1164346
2.1283576
2.138849
2.1464199
2.1473597
2.1498204
2.0977093
2.0812856
2.0688977
2.0614307
2.0573186
2.0561453
2.058105
2.0634538
2.0724224
2.0850679
2.1011685
2.1201626
2.1408845
2.1617661
2.1825896
2.1946156
2.1926214
2.2046323
2.0997179
2.0824968
2.0712127
2.0648878
2.0623236
2.0633362
2.0681681
2.0772423
2.0909913
2.1097221
2.1335193
2.162149
2.1957113
2.2349066
2.2669789
2.2911529
2.366661
2.089434
2.0764665
2.0686294
2.0649915
2.06512
2.069178
2.0777113
2.0914608
2.1112096
2.1376825
2.1716147
2.2142327
2.2664431
2.3272049
2.4478918
2.7467062
1.7795334
1.7881884
1.8408319
1.8609953
1.8051536
1.8433374
1.7927809
1.7263338
1.93623
1.8499519
1.8289941
1.931377
1.9161489
1.9210713
1.7569156
1.8094603
1.7515921
1.8037391
1.6989573
1.6923282
1.6302415
1.8913199
1.892828
1.9856415
1.9954954
1.7397584
1.817002
1.7327145
1.8149848
1.6585473
1.6863756
1.6780692
1.6547429
1.6110229
1.6069422
1.5459434
1.9417913
1.9560623
2.0172431
2.040937
1.7371256
1.8163342
1.8166369
1.8619003
1.8644111
1.7247963
1.8089183
1.8087198
1.8638211
1.8622995
1.6528172
1.6852871
1.6480566
1.6742636
1.5713543
1.6094461
1.6058447
1.5699322
1.5289016
1.5274909
1.4688848
1.9139553
1.9103536
1.9868266
1.9197561
1.9214768
2.0092996
1.7753476
1.7311348
1.735112
1.7813754
1.8683877
1.8667258
1.7218485
1.7657764
1.7684762
1.7171767
1.8613921
1.8640365
1.6504505
1.6787295
1.7053423
1.7080782
1.6802127
1.648575
1.700846
1.6707492
1.6740096
1.6974751
1.5676209
1.6071629
1.5684314
1.606844
1.4877148
1.5264428
1.5274043
1.4886246
1.448349
1.4491995
1.3931968
1.9574084
1.9472368
1.9897917
1.9823405
1.9556503
1.9563136
1.9933333
1.9971474
1.7684868
1.8119562
1.8973351
1.9785371
1.9572163
1.9955028
2.0299418
2.0308268
2.0548832
2.0607157
1.9980328
2.0194603
2.0486377
2.0802856
2.0264451
1.9928707
1.9953602
1.9279019
1.9973386
2.0179263
2.0171918
2.0483308
1.9386632
1.9730181
1.9900383
1.9246672
1.8731316
1.8940437
1.879075
1.9927368
2.0103842
2.0023725
1.9964235
2.0049437
1.9962546
2.0053544
2.0201699
2.0102651
2.0142115
1.9154155
1.9600419
1.9094943
1.9623368
1.8423942
1.8384126
1.8636536
1.8726777
1.7644098
1.7985351
1.8504257
1.9226264
1.9536428
1.9282032
1.8940463
1.8717882
1.857661
1.7652326
1.7931586
1.8294312
1.875654
1.91179
1.9169383
1.9050321
1.8927583
1.8839192
1.8782023
1.7702908
1.7932772
1.8218467
1.8556764
1.8869014
1.9048382
1.9091304
1.9073385
1.9044659
1.9019951
1.9009457
1.7794088
1.7981475
1.8218277
1.8497477
1.877088
1.8982333
1.9110816
1.9174472
1.9203205
1.9216481
1.9223376
1.9235417
1.7925766
1.8075335
1.8274489
1.8518177
1.8765803
1.897924
1.9142052
1.9254655
1.9328563
1.9376784
1.9408326
1.9428676
1.9447052
1.8098635
1.8214518
1.8381861
1.8597804
1.882326
1.9027094
1.9198062
1.9333279
1.9435685
1.9511298
1.9565836
1.9603438
1.9626812
1.9642137
1.8313408
1.8400253
1.8540036
1.8729693
1.8931456
1.9118111
1.9282566
1.9422603
1.9538148
1.9631027
1.9703628
1.9758057
1.9795833
1.9817348
1.9826049
1.8569981
1.8633059
1.8748824
1.8910513
1.9084852
1.9248242
1.9396743