/*--------------------------------*- C++ -*----------------------------------*\
| =========                 |                                                 |
| \\      /  F ield         | OpenFOAM: The Open Source CFD Toolbox           |
|  \\    /   O peration     | Version:  2412                                  |
|   \\  /    A nd           | Website:  www.openfoam.com                      |
|    \\/     M anipulation  |                                                 |
\*---------------------------------------------------------------------------*/
FoamFile
{
    version     2.0;
    format      ascii;
    arch        "LSB;label=32;scalar=64";
    class       surfaceScalarField;
    location    "53";
    object      phi;
}
// * * * * * * * * * * * * * * * * * * * * * * * * * * * * * * * * * * * * * //

dimensions      [0 3 -1 0 0 0 0];

oriented        oriented;

internalField   nonuniform List<scalar> 
226514
(
0.00034702632
-0.00010984959
0.00012844827
0.00031918554
-0.0001023597
0.00013020048
0.00087925468
-0.00014810141
0.00019962213
0.00043413993
-5.0048996e-05
0.00010998233
0.00028442697
-5.2251991e-05
8.7010556e-05
0.00073092772
-0.00018474359
0.00023071084
0.00047578724
-7.225107e-05
0.00016080424
0.0013858389
-0.00014476142
0.00025144609
0.0011310595
-7.8887826e-05
0.00013802642
0.0004140707
-1.8576007e-05
8.0112632e-05
0.0002528908
-2.0037149e-05
5.1573311e-05
0.00062218065
-0.00012110671
0.00017760178
0.00048202532
-5.8651973e-05
0.00013942444
0.0011166655
-0.00021361746
0.00029804734
0.0011692539
-0.00014480647
0.00026507183
0.00047537886
-4.0166252e-05
0.00013966233
0.0018528938
-0.0001259358
0.00029390561
0.0017530393
-8.1182596e-05
0.00014132652
0.0011049185
-3.336441e-05
8.8521335e-05
0.00039624984
-9.2578446e-06
5.874564e-05
0.00022641851
-1.1781138e-06
2.7650404e-05
0.0005422181
-6.3365128e-05
0.00012329053
0.0004692711
-3.9716343e-05
0.00010404387
0.00091844993
-0.00016295885
0.00024006765
0.0011568238
-0.00014041928
0.00027179921
0.00051532214
-4.3467528e-05
0.00014294869
0.0014919951
-0.00020679117
0.00035407235
0.0017762942
-0.00017058137
0.00030056731
0.0012012893
-8.2311295e-05
0.00021084603
0.00044787066
-2.2483892e-05
0.0001105254
0.0022650145
-0.00010282649
0.00032750117
0.0023038858
-7.1880834e-05
0.00014634308
0.0017077715
-3.7881042e-05
7.8696606e-05
0.00107684
-1.7382612e-05
6.0431071e-05
0.00038626319
-5.2821719e-06
4.338962e-05
0.00020421119
9.5612039e-06
1.2646118e-05
0.00048309723
-2.2960582e-05
8.0903334e-05
0.00044763292
-2.2093724e-05
7.1382306e-05
0.00077884339
-9.9288508e-05
0.00017552992
0.0011169838
-0.00011072669
0.00023414092
0.00053316857
-3.7997643e-05
0.00012419507
0.001210259
-0.00017424594
0.00029302324
0.0017307907
-0.00018560562
0.0003307575
0.001272497
-0.00010087076
0.00025799473
0.00049352229
-2.6681067e-05
0.00012397812
0.0018386816
-0.0001809521
0.00040049386
0.0023256047
-0.00016403485
0.00032580684
0.0018127713
-9.9401328e-05
0.00021265757
0.0011561948
-4.6334668e-05
0.00015534205
0.00042464112
-1.2282841e-05
8.4430318e-05
0.0026138841
-7.9362715e-05
0.00035327715
0.0027782604
-5.8907949e-05
0.00015189285
0.0022346431
-3.5794585e-05
7.5238545e-05
0.001673095
-2.1084088e-05
4.9928125e-05
0.0010625277
-9.7189988e-06
4.2965191e-05
0.00038070959
-3.5085525e-06
3.1813588e-05
0.0001856195
1.4638953e-05
3.952734e-06
0.00043804415
4.0840126e-06
5.0530265e-05
0.00042223376
-7.434638e-06
4.5479907e-05
0.00068101855
-4.7521921e-05
0.00012238617
0.0010657146
-7.4940761e-05
0.00018501956
0.00053457017
-2.9055019e-05
9.9035727e-05
0.0010071444
-0.00011627029
0.00022009633
0.0016520602
-0.00016210857
0.00030564235
0.0013089294
-9.7960572e-05
0.00025767147
0.00052541279
-2.5744229e-05
0.00011804881
0.0014884828
-0.00016283147
0.00033878431
0.0022561375
-0.00019206554
0.00036895041
0.0018914937
-0.00013141467
0.000282579
0.0012396808
-6.1468255e-05
0.00020929588
0.00046405548
-1.4792812e-05
9.9356565e-05
0.0021413366
-0.00014587202
0.0004374674
0.0028075789
-0.00014138597
0.00034852644
0.0023461075
-9.7199236e-05
0.00021214035
0.0017531101
-5.7669641e-05
0.0001439774
0.0011172938
-2.5605593e-05
0.00011389871
0.00040950486
-7.1481067e-06
6.2783154e-05
0.0028955128
-5.6704619e-05
0.00037245406
0.0031735988
-4.5179968e-05
0.00015657535
0.0026865364
-3.0510287e-05
7.5697108e-05
0.0021947096
-2.0889532e-05
4.5959403e-05
0.0016590373
-1.20556e-05
3.3852467e-05
0.0010548673
-5.7223758e-06
3.0936673e-05
0.00037766508
-2.7006913e-06
2.2474197e-05
0.00016989725
1.6399681e-05
-6.7743241e-07
0.00040230415
2.0249575e-05
3.0129376e-05
0.0003960931
3.3163362e-06
2.6777049e-05
0.00061128814
-8.7114181e-06
8.2525841e-05
0.001011145
-4.0537243e-05
0.00013820242
0.00052479828
-1.904038e-05
7.4292172e-05
0.00086465952
-6.2622221e-05
0.00015758519
0.001563272
-0.00012250275
0.00025873633
0.0013156736
-8.307891e-05
0.00023229926
0.00054354563
-2.2416511e-05
0.0001033194
0.0012272698
-0.00011487252
0.00025981521
0.0021412355
-0.00017914819
0.00035203787
0.0019310192
-0.00013729658
0.00030545289
0.0013078067
-6.5031399e-05
0.00022883279
0.0004970865
-1.4786777e-05
9.9804563e-05
0.0017384956
-0.00013663339
0.00037664286
0.0027263795
-0.00017335127
0.00040126944
0.0024292554
-0.00013429075
0.00028867855
0.0018438288
-8.0744868e-05
0.00021113696
0.0011854733
-3.4417967e-05
0.0001607415
0.00044132439
-8.2327534e-06
7.5769797e-05
0.0023905779
-0.00010666667
0.00046572956
0.0032137489
-0.00011172992
0.00036766122
0.0028049463
-8.4409724e-05
0.00021732703
0.0022717791
-5.7901245e-05
0.00013530241
0.001709694
-3.2659288e-05
0.00010037437
0.0010931548
-1.4461161e-05
8.2924341e-05
0.00040043146
-4.5675822e-06
4.4584366e-05
0.003107912
-3.5031799e-05
0.00038604015
0.0034894469
-3.164822e-05
0.00016010045
0.0030630658
-2.374582e-05
7.7370055e-05
0.0026427388
-1.8257235e-05
4.5951052e-05
0.002181593
-1.2154787e-05
3.0090623e-05
0.0016519628
-6.8818741e-06
2.367417e-05
0.0010507881
-3.6036012e-06
2.1676483e-05
0.0003759904
-2.3010257e-06
1.4409825e-05
0.00015622092
1.658048e-05
-2.904155e-06
0.00037278525
2.8917249e-05
1.7001321e-05
0.00037077494
1.0499339e-05
1.4141391e-05
0.00055957219
1.7418471e-05
5.454705e-05
0.00095703494
-1.181093e-05
9.9366682e-05
0.00050813622
-9.644858e-06
5.3083961e-05
0.00076513119
-1.8571586e-05
0.00010938849
0.0014762356
-7.8197498e-05
0.00020722249
0.0013006703
-6.2140778e-05
0.00019630606
0.00054999458
-1.7667689e-05
8.5510907e-05
0.0010404796
-6.5283556e-05
0.00018945157
0.0020126622
-0.0001445832
0.00030823896
0.0019350749
-0.00012530117
0.00029690288
0.0013540023
-6.1192241e-05
0.00022487933
0.00052147584
-1.3566749e-05
9.2496812e-05
0.0014288751
-9.9086718e-05
0.0002938347
0.0025857789
-0.0001683572
0.00038962483
0.0024687362
-0.00014674293
0.00032200344
0.0019243533
-9.0182482e-05
0.00025007944
0.0012522164
-3.732922e-05
0.00018463214
0.00047067177
-8.0625728e-06
7.8519754e-05
0.0019489947
-0.00010147046
0.00040642026
0.003129012
-0.00014068343
0.00042871192
0.0028941726
-0.00011950019
0.00029725255
0.0023612061
-8.3222895e-05
0.00020172961
0.0017783334
-4.6066761e-05
0.00015414635
0.0011449714
-1.8927208e-05
0.0001196193
0.00042637804
-4.7111509e-06
5.453437e-05
0.0025809932
-6.5894062e-05
0.00048614624
0.003540296
-7.9418254e-05
0.00038256871
0.003187974
-6.6344531e-05
0.00022468788
0.0027180676
-5.0953923e-05
0.00013505084
0.0022269854
-3.3337536e-05
9.0588233e-05
0.0016851885
-1.8298756e-05
7.098627e-05
0.0010793243
-8.4262578e-06
5.8246783e-05
0.00039514284
-3.2056094e-06
2.8637539e-05
0.0032500519
-1.4225262e-05
0.00039476655
0.0037260094
-1.8551284e-05
0.00016255883
0.0033641794
-1.6330834e-05
7.9131023e-05
0.0030166301
-1.4203126e-05
4.7310806e-05
0.002630414
-1.0621594e-05
2.9628889e-05
0.0021752128
-6.8112519e-06
2.0432243e-05
0.0016482995
-3.9143505e-06
1.6310381e-05
0.0010486018
-2.4470837e-06
1.3845753e-05
0.0003750884
-2.1010216e-06
7.0474483e-06
0.00014387638
1.6148987e-05
-3.8044438e-06
0.00034729905
3.3309136e-05
8.7575415e-06
0.00034673886
1.5101805e-05
6.0301105e-06
0.00051922147
3.3626312e-05
3.564166e-05
0.00090500411
1.0068535e-05
6.9462943e-05
0.00048762323
-1.7395892e-06
3.6393963e-05
0.00069400748
1.3655641e-05
7.488654e-05
0.0013952398
-3.6842542e-05
0.00016057447
0.0012711367
-3.9643966e-05
0.00015889935
0.00054736529
-1.2252169e-05
6.7965424e-05
0.00090957253
-2.1359427e-05
0.00013369486
0.0018884654
-0.00010003679
0.00025542454
0.0019126416
-0.00010188127
0.00026939621
0.0013782857
-5.2274992e-05
0.00020662995
0.00053705265
-1.1484151e-05
8.1418239e-05
0.0012026934
-5.6645175e-05
0.00021754334
0.0024240745
-0.00014091286
0.00034748558
0.0024671353
-0.0001401825
0.00032472113
0.001984158
-8.9426018e-05
0.00026533195
0.0013090015
-3.642306e-05
0.00019095059
0.00049508138
-7.2404953e-06
7.5327706e-05
0.001601709
-7.3147777e-05
0.00032134676
0.0029725381
-0.00013944577
0.00042139717
0.0029360596
-0.00013384037
0.00033483533
0.0024435519
-9.5575144e-05
0.00024505033
0.0018520117
-5.212706e-05
0.00019119898
0.0012005269
-2.0049696e-05
0.00014106383
0.00045159347
-4.2512376e-06
5.7555559e-05
0.0021124231
-6.1260447e-05
0.00042836005
0.0034563014
-0.00010085817
0.00045058964
0.0032841101
-9.4998019e-05
0.00030807366
0.0028059
-7.4055074e-05
0.00020025232
0.002289521
-4.8017226e-05
0.00014114442
0.0017343058
-2.5351698e-05
0.00011145352
0.0011195321
-1.0229616e-05
8.4929963e-05
0.00041718459
-2.7879848e-06
3.5280605e-05
0.0027094979
-2.4784696e-05
0.00049944463
0.0037857985
-4.6398227e-05
0.00039333708
0.0034945256
-4.5796225e-05
0.00023167427
0.0030913717
-3.9736439e-05
0.00013872886
0.0026727678
-2.9267928e-05
8.8627423e-05
0.00220371
-1.8430602e-05
6.2222831e-05
0.0016718405
-9.9965097e-06
4.9015563e-05
0.0010715153
-5.0787802e-06
3.720645e-05
0.00039221279
-2.5009313e-06
1.4014084e-05
0.0033213551
5.9863652e-06
0.00039905828
0.0038835987
-5.8532184e-06
0.00016409477
0.0035899591
-8.6803677e-06
8.0574301e-05
0.0033160124
-9.3596515e-06
4.890012e-05
0.0030049031
-8.0001051e-06
3.041123e-05
0.0026244238
-5.728162e-06
1.974704e-05
0.0021719425
-3.57717e-06
1.3777568e-05
0.0016463766
-2.2046988e-06
1.0316405e-05
0.0010474416
-1.8321303e-06
6.7602347e-06
0.00037468926
-2.0168188e-06
3.5403175e-12
0.00013233285
1.559615e-05
-4.0526263e-06
0.00032428294
3.5538088e-05
3.6270062e-06
0.00032382709
1.8043552e-05
1.0637692e-06
0.00048590343
4.359386e-05
2.303331e-05
0.00085542895
2.6058435e-05
4.7376062e-05
0.00046506986
4.5476764e-06
2.4035807e-05
0.00064103465
3.5372352e-05
5.1226781e-05
0.001321025
-2.1141162e-06
0.00012203904
0.0012324671
-1.8547284e-05
0.00012494031
0.00053808858
-6.8506383e-06
5.2521309e-05
0.00081719763
1.3005179e-05
9.3025363e-05
0.0017757964
-5.4392206e-05
0.00020510526
0.0018726814
-7.2773525e-05
0.00023366422
0.0013836822
-4.0160695e-05
0.00018141141
0.00054462138
-8.7608902e-06
6.9157589e-05
0.0010424373
-1.665951e-05
0.00015555614
0.0022655051
-0.00010094733
0.0002931748
0.0024343599
-0.00011975636
0.00030607501
0.002020043
-8.0774455e-05
0.00026201069
0.001351822
-3.2674744e-05
0.00018499999
0.00051359168
-5.9584354e-06
6.8866376e-05
0.0013433522
-3.9163065e-05
0.00024087471
0.0027867399
-0.00011808611
0.00038051475
0.0029315116
-0.00013092801
0.0003427791
0.002507377
-9.7480613e-05
0.00026895063
0.0019209253
-5.2714609e-05
0.00021270992
0.0012530831
-1.9004575e-05
0.00015015845
0.00047397364
-3.4260546e-06
5.6373594e-05
0.0017379506
-4.0701542e-05
0.00034202623
0.0032909404
-9.9762274e-05
0.00044702417
0.0033305999
-0.00010735788
0.00034842483
0.0028880028
-8.5906472e-05
0.00024306389
0.0023590889
-5.5290834e-05
0.00017864622
0.001791796
-2.7945028e-05
0.00014160415
0.0011646909
-9.9783163e-06
0.00010163212
0.0004392433
-2.1367892e-06
3.7633642e-05
0.0022240156
-1.8587166e-05
0.00044280904
0.0037042512
-5.7680545e-05
0.00046672967
0.0035972041
-6.5498589e-05
0.00031841166
0.003178658
-5.7776986e-05
0.00020450921
0.0027304632
-4.2376976e-05
0.00013691667
0.0022463826
-2.6109417e-05
9.9229608e-05
0.001708309
-1.3081094e-05
7.7836523e-05
0.0011044289
-5.3174421e-06
5.4545846e-05
0.00041194281
-1.7759129e-06
1.7326493e-05
0.0027744168
1.6133883e-05
0.00050601974
0.0039498189
-1.3439865e-05
0.00040026602
0.003724493
-2.4222754e-05
0.00023722969
0.0033908053
-2.6102227e-05
0.00014324719
0.0030458558
-2.1990593e-05
9.049882e-05
0.0026504119
-1.5530243e-05
5.9738968e-05
0.0021914649
-9.3643497e-06
4.2068303e-05
0.0016644824
-5.1698336e-06
3.1000779e-05
0.0010672725
-3.2859117e-06
1.8160543e-05
0.00039090222
-2.1988766e-06
6.9230305e-12
0.0033214841
2.6077666e-05
0.0003990496
0.0039624384
6.5622338e-06
0.0001648294
0.0037404912
-1.0111657e-06
8.1559396e-05
0.0035406956
-4.1224973e-06
5.0266563e-05
0.0033047258
-4.7009976e-06
3.150023e-05
0.0029991017
-3.891973e-06
2.0098335e-05
0.002621347
-2.6481394e-06
1.3096025e-05
0.002170247
-1.6376922e-06
8.5886071e-06
0.0016453621
-1.2638199e-06
5.0110062e-06
0.0010469323
-1.5639187e-06
3.5070746e-12
0.00037468926
-2.0168187e-06
-7.0474414e-06
0.00012127237
1.517148e-05
-4.1110033e-06
0.00030267518
3.6836362e-05
3.6755087e-07
0.0003016475
1.9997856e-05
-1.8708988e-06
0.00045677846
5.0107839e-05
1.4555209e-05
0.00080792874
3.7699227e-05
3.1471535e-05
0.00044134154
9.4405844e-06
1.5351499e-05
0.00059940661
4.996981e-05
3.5252087e-05
0.0012528415
2.5665232e-05
9.1610018e-05
0.001188176
-1.1919255e-07
9.6333998e-05
0.00052401161
-1.854815e-06
3.9967591e-05
0.00075013912
3.7631377e-05
6.4799478e-05
0.0016758926
-1.301953e-05
0.00016203594
0.0018218817
-4.2534003e-05
0.00019682544
0.0013739662
-2.6645365e-05
0.00015445103
0.00054539001
-5.6907647e-06
5.7443441e-05
0.0009294836
1.6443567e-05
0.00010951534
0.0021212809
-5.682371e-05
0.00023968107
0.0023814403
-9.0651842e-05
0.00027590319
0.0020336194
-6.6242503e-05
0.00024616958
0.0013797262
-2.6690581e-05
0.00017143692
0.00052609116
-4.3185898e-06
6.0976708e-05
0.0011581537
-5.606172e-06
0.0001741452
0.0026007084
-8.4170275e-05
0.00032481058
0.0028905709
-0.0001143796
0.00032873867
0.0025475338
-9.0751271e-05
0.00027589505
0.0019784127
-4.8983402e-05
0.00022083188
0.0012984094
-1.6401581e-05
0.00015011685
0.00049242824
-2.3230524e-06
5.2734826e-05
0.0014555676
-1.5562606e-05
0.0002587825
0.0030889934
-8.2653209e-05
0.00040738883
0.0033264456
-0.00010547207
0.00035921306
0.0029530056
-8.8335395e-05
0.00026863105
0.0024275383
-5.6616712e-05
0.00020440336
0.0018511615
-2.7147511e-05
0.00016148734
0.0012098232
-8.3791892e-06
0.00010997937
0.00045958799
-1.2898649e-06
3.7318768e-05
0.0018322155
-4.7326947e-06
0.00035583125
0.0035345119
-5.4176831e-05
0.0004661801
0.0036490689
-7.3303558e-05
0.00036110505
0.0032609357
-6.6679504e-05
0.00024692025
0.0027948224
-4.8738945e-05
0.00017215284
0.0022976662
-2.9108753e-05
0.00012852632
0.0017529143
-1.3253394e-05
0.0001002739
0.0011423358
-4.2268945e-06
6.5815286e-05
0.00043200824
-1.0182753e-06
1.8586489e-05
0.0022810989
2.4735466e-05
0.00044999521
0.0038708891
-1.3227649e-05
0.00047728594
0.0038326428
-3.3662994e-05
0.00032674419
0.0034783266
-3.7399403e-05
0.00021051273
0.0031008088
-3.1533404e-05
0.0001387126
0.0026887023
-2.1965834e-05
9.448271e-05
0.0022221544
-1.251403e-05
6.7972982e-05
0.0016933264
-5.8492577e-06
4.9524377e-05
0.0010960134
-2.6636544e-06
2.6692661e-05
0.00040956625
-1.3375516e-06
9.124309e-12
0.0027750714
5.6570664e-05
0.00050597591
0.0040322265
1.9149022e-05
0.00040364278
0.0038779615
-2.419215e-06
0.00024099216
0.0036158474
-1.1229592e-05
0.00014720525
0.0033451941
-1.2694017e-05
9.3482266e-05
0.0030239825
-1.0388249e-05
6.0476044e-05
0.0026388489
-6.8528687e-06
3.9725602e-05
0.0021848013
-3.8895475e-06
2.6233657e-05
0.0016605251
-2.5018428e-06
1.5053724e-05
0.0010653952
-2.5011614e-06
5.3079556e-12
0.00039090222
-2.1988767e-06
-1.401407e-05
0.0032504915
4.6424897e-05
0.00039478625
0.0039626305
1.8777925e-05
0.00016482843
0.0038158287
6.5561135e-06
8.2058439e-05
0.0036905822
1.2501607e-06
5.1229558e-05
0.0035297223
-1.0267257e-06
3.2494994e-05
0.0032990102
-1.544628e-06
2.0767728e-05
0.0029961021
-1.2313357e-06
1.32044e-05
0.0026197662
-7.4335158e-07
8.060479e-06
0.0021693532
-5.405556e-07
4.1371039e-06
0.0016449176
-8.4547266e-07
2.5706523e-12
0.0010469323
-1.5639186e-06
-6.7602277e-06
0.0003750884
-2.1010211e-06
-1.4409819e-05
0.00011067151
1.4992204e-05
-4.3913398e-06
0.00028184812
3.7922371e-05
-1.9238343e-06
0.00027979983
2.1445663e-05
-3.7089899e-06
0.00043002915
5.4934151e-05
8.6515262e-06
0.00076176306
4.6411459e-05
2.0119619e-05
0.0004166645
1.3253451e-05
9.5526871e-06
0.00056468624
6.0470401e-05
2.4357813e-05
0.0011892992
4.7676531e-05
6.8120165e-05
0.0011402434
1.5452494e-05
7.3392237e-05
0.00050630958
2.5796351e-06
3.0473891e-05
0.00069928295
5.5195906e-05
4.563007e-05
0.0015874503
2.2406971e-05
0.00012695261
0.001764558
-1.3819128e-05
0.00016263366
0.0013524918
-1.3015073e-05
0.00012896867
0.00054053327
-2.5157793e-06
4.7340111e-05
0.00084850896
4.1456016e-05
7.7149998e-05
0.0019944537
-1.4349993e-05
0.0001929572
0.002316889
-5.764416e-05
0.00024169739
0.0020283816
-4.8062931e-05
0.00022348085
0.0013935136
-1.9172035e-05
0.00015414495
0.00053295607
-2.4303365e-06
5.3008863e-05
0.0010272436
2.3523042e-05
0.00012383062
0.0024295454
-4.4614083e-05
0.00026846868
0.0028259248
-8.8185595e-05
0.00030186099
0.0025644145
-7.6921339e-05
0.00026970134
0.0020211176
-4.1620495e-05
0.00021839463
0.0013342261
-1.2569723e-05
0.00014387134
0.00050652895
-1.0234678e-06
4.7899468e-05
0.0012512134
1.0035538e-05
0.00018871257
0.002882977
-5.4756936e-05
0.00035074824
0.0032811836
-9.1710268e-05
0.00034740326
0.002994657
-8.2738934e-05
0.00027907495
0.0024880599
-5.3125907e-05
0.00021951594
0.0019071287
-2.3787595e-05
0.00017225073
0.0012514555
-5.8013852e-06
0.0001119629
0.00047717335
-2.4108455e-07
3.5390553e-05
0.0015342144
1.1498978e-05
0.00027093946
0.0033226256
-3.9682883e-05
0.00042769851
0.0036473725
-7.031695e-05
0.00037393011
0.0033270622
-6.7721095e-05
0.00027247223
0.0028593863
-4.9408138e-05
0.00019685855
0.0023528333
-2.8162238e-05
0.000150251
0.0018011986
-1.1146947e-05
0.00011597082
0.0011813895
-2.2658282e-06
7.1901703e-05
0.00045093818
-1.6507585e-07
1.8553909e-05
0.0018812527
3.231201e-05
0.00036280151
0.0036995593
-5.8652735e-06
0.00047884951
0.0038895713
-3.5388604e-05
0.00037133671
0.0035613836
-4.1831572e-05
0.0002532002
0.0031615931
-3.5390523e-05
0.00017278753
0.0027343149
-2.4036402e-05
0.0001214679
0.0022605969
-1.2537295e-05
8.9367771e-05
0.0017295632
-4.5140565e-06
6.4324262e-05
0.0011295698
-1.1058159e-06
3.2346459e-05
0.0004286843
-5.3157014e-07
1.079435e-11
0.0022825087
6.7255407e-05
0.0004500427
0.0039552751
3.1230693e-05
0.00048248824
0.0039901681
-1.033748e-06
0.00033245002
0.0037040228
-1.4864175e-05
0.0002160336
0.00339888
-1.7386169e-05
0.00014267959
0.0030600028
-1.416005e-05
9.4886502e-05
0.0026659363
-8.8320664e-06
6.3713318e-05
0.002208423
-4.200499e-06
4.2702534e-05
0.0016850902
-1.8231965e-06
2.4118816e-05
0.0010922465
-1.4962576e-06
9.6079981e-12
0.00040956625
-1.3375518e-06
-1.7326475e-05
0.0027114183
9.6230776e-05
0.00049941313
0.00403297
5.1153806e-05
0.00040363156
0.0039550089
1.9170739e-05
0.00024287259
0.0037662213
4.1046512e-06
0.00015001882
0.0035702031
-2.2636736e-06
9.6294126e-05
0.0033235299
-3.7318444e-06
6.2306132e-05
0.0030127412
-2.8549611e-06
3.9839071e-05
0.0026325958
-1.4567351e-06
2.4463168e-05
0.0021812304
-7.8227279e-07
1.2636935e-05
0.001658783
-1.3128917e-06
3.7044177e-12
0.0010653952
-2.5011612e-06
-1.8160533e-05
0.00039221279
-2.50093e-06
-2.8637528e-05
0.0031086804
6.7249658e-05
0.00038611985
0.0038841891
3.091991e-05
0.00016408017
0.0038159947
1.3947261e-05
8.2067628e-05
0.0037656278
6.582889e-06
5.1722911e-05
0.0036798136
2.7956721e-06
3.3218544e-05
0.0035240448
1.1011936e-06
2.1429348e-05
0.0032960329
5.4092597e-07
1.3587538e-05
0.0029945725
4.5234233e-07
8.0612195e-06
0.0026189346
3.580136e-07
3.8522839e-06
0.0021689615
-4.4866708e-08
2.2644773e-12
0.0016449176
-8.4547235e-07
-5.0110008e-06
0.0010474416
-1.8321299e-06
-1.3845747e-05
0.0003759904
-2.3010253e-06
-2.2474192e-05
0.00010102876
1.5074912e-05
-5.4321662e-06
0.00026166951
3.9205511e-05
-4.0347086e-06
0.00025808255
2.2711749e-05
-5.3858209e-06
0.00040457672
5.9181367e-05
4.1934262e-06
0.00071616332
5.3339079e-05
1.1782481e-05
0.00039086244
1.627726e-05
5.8158091e-06
0.00053405148
6.8941961e-05
1.6626947e-05
0.0011288453
6.5450663e-05
5.0066295e-05
0.001089503
2.8482597e-05
5.5630868e-05
0.00048554089
6.4189666e-06
2.3902409e-05
0.00065858967
6.8597634e-05
3.2566046e-05
0.001508129
5.2318094e-05
9.9037551e-05
0.0017031285
1.2281125e-05
0.00013272104
0.0013217383
1.1418406e-08
0.00010671397
0.00053094932
6.0239052e-07
3.9455453e-05
0.00078848076
6.0220322e-05
5.5003787e-05
0.0018841681
2.4008027e-05
0.00015431457
0.0022462219
-2.4029599e-05
0.00020783019
0.0020079186
-2.8124919e-05
0.00019820654
0.0013946714
-1.0760936e-05
0.00013605596
0.00053475007
-3.8982079e-07
4.5935935e-05
0.00093397758
4.665644e-05
8.8065556e-05
0.0022785661
-4.712388e-06
0.00021849173
0.0027479998
-5.6460372e-05
0.00026969837
0.0025611042
-5.7926116e-05
0.00025487079
0.0020481982
-3.1428727e-05
0.00020865697
0.0013596978
-7.7973972e-06
0.00013404035
0.00051627839
4.1643023e-07
4.2842993e-05
0.0011062632
3.3184827e-05
0.00013528834
0.002691164
-2.1172404e-05
0.00029220198
0.0032084781
-6.8870427e-05
0.00032185898
0.0030124766
-7.0160588e-05
0.00027728064
0.0025362884
-4.5438061e-05
0.00022529038
0.0019558641
-1.8357942e-05
0.00017544742
0.0012873285
-2.4975679e-06
0.00010947245
0.00049148799
9.460199e-07
3.2638813e-05
0.0013172128
2.8239745e-05
0.00019879745
0.0031033471
-1.7322668e-05
0.00037055673
0.0036008929
-5.797253e-05
0.00036349009
0.0033700729
-6.1959159e-05
0.00028361273
0.0029180885
-4.5412555e-05
0.0002126594
0.0024075556
-2.4100943e-05
0.000165107
0.0018493937
-7.2906793e-06
0.00012554491
0.0012187463
3.9669683e-07
7.3968288e-05
0.00046775164
8.5212815e-07
1.7724965e-05
0.0015759685
3.9566259e-05
0.00027721694
0.0034824763
7.067476e-06
0.00044127203
0.0038911402
-2.9896164e-05
0.00038570875
0.003629049
-4.021984e-05
0.00027876339
0.0032228591
-3.4259366e-05
0.0001960575
0.0027836688
-2.2157104e-05
0.00014149948
0.002303615
-9.7975355e-06
0.00010588352
0.001769837
-1.5881005e-06
7.5019266e-05
0.0011647441
1.0457118e-06
3.5516665e-05
0.00044691602
3.2218247e-07
1.2453072e-11
0.0018834915
6.8332052e-05
0.0003629972
0.0037840944
4.2957839e-05
0.00048515908
0.0040511929
4.0703502e-06
0.00037836575
0.0037882181
-1.3969936e-05
0.00025927972
0.0034577246
-1.7693538e-05
0.00017665867
0.0031021575
-1.4193868e-05
0.00012079035
0.0026995065
-7.8591621e-06
8.3219594e-05
0.0022389054
-2.3048349e-06
5.6676173e-05
0.0017164686
3.7738979e-07
3.1462607e-05
0.0011237896
2.7176755e-07
1.4381583e-11
0.0004286843
-5.315712e-07
-1.8586467e-05
0.0022280824
0.00010758612
0.00044300512
0.003957013
7.4755336e-05
0.00048247509
0.004069723
3.1439132e-05
0.00033530121
0.00385523
8.5299002e-06
0.00022004723
0.0036235377
-1.3638133e-06
0.00014667659
0.0033586044
-3.8783256e-06
9.7323363e-05
0.0030380808
-2.6802961e-06
6.3395183e-05
0.0026531171
-5.6608502e-07
3.9557623e-05
0.0022009125
5.4997642e-07
2.0647295e-05
0.0016814272
-2.1686947e-08
7.4420884e-12
0.0010922465
-1.4962577e-06
-2.6692642e-05
0.00041194281
-1.7759113e-06
-3.5280589e-05
0.002584073
0.00013461585
0.00048622233
0.0039520734
8.2468075e-05
0.0004002145
0.0039556849
4.0255997e-05
0.00024285604
0.0038417864
1.9358764e-05
0.00015145984
0.0037205742
8.6305616e-06
9.8364055e-05
0.0035486111
3.8109354e-06
6.4185054e-05
0.0033124106
2.1999543e-06
4.0873545e-05
0.0030066851
1.9335788e-06
2.4336151e-05
0.002629251
1.6709342e-06
1.1693614e-05
0.0021796615
6.2399381e-07
2.6340607e-12
0.001658783
-1.3128916e-06
-1.5053716e-05
0.0010672725
-3.2859103e-06
-3.7206442e-05
0.00039514284
-3.2056087e-06
-4.4584356e-05
0.0028965574
8.8737407e-05
0.0003725799
0.0037269994
4.3139391e-05
0.00016252592
0.0037409939
2.1088884e-05
8.1569645e-05
0.003765811
1.1740903e-05
5.1723588e-05
0.0037549597
6.5900881e-06
3.3593765e-05
0.0036741518
3.8643862e-06
2.1928564e-05
0.0035210673
2.5257244e-06
1.4002256e-05
0.0032945224
1.8823929e-06
8.2600912e-06
0.0029937701
1.4422154e-06
3.831924e-06
0.0026185702
8.6216914e-07
2.0925075e-12
0.0021689615
-4.4866483e-08
-4.1370989e-06
0.0016453621
-1.2638189e-06
-1.0316402e-05
0.0010486018
-2.4470834e-06
-2.1676479e-05
0.00037766508
-2.700691e-06
-3.1813584e-05
9.3897915e-05
1.5294765e-05
-8.163928e-06
0.00024280478
4.0856407e-05
-6.9167635e-06
0.00023681664
2.3968392e-05
-8.13465e-06
0.00038000688
6.3541067e-05
2.342859e-07
0.00067065998
5.9323106e-05
4.8572601e-06
0.00036352939
1.8725618e-05
3.2216054e-06
0.00050579207
7.6763875e-05
1.0676895e-05
0.0010700669
8.0441033e-05
3.5869837e-05
0.0010359708
3.9469197e-05
4.2122711e-05
0.00046170612
9.6650034e-06
1.9985581e-05
0.00062418908
7.9999862e-05
2.3342689e-05
0.001435379
7.793894e-05
7.6888745e-05
0.0016385928
3.5603548e-05
0.00010748102
0.0012832086
1.2077285e-05
8.8502248e-05
0.0005171593
3.542356e-06
3.4150072e-05
0.00074193287
7.5242915e-05
3.9902599e-05
0.0017878292
5.8043935e-05
0.00012317909
0.0021725383
8.4555637e-06
0.00017654666
0.0019751386
-7.6970711e-06
0.00017320953
0.001384684
-1.9339618e-06
0.00011923776
0.00053202114
1.7244259e-06
4.0459958e-05
0.00086587477
6.4909452e-05
6.3413674e-05
0.0021479526
3.2905773e-05
0.00017671949
0.0026638556
-2.2375161e-05
0.00023680428
0.0025412259
-3.5628989e-05
0.00023521255
0.0020602047
-1.9217559e-05
0.00019465664
0.0013748636
-2.3337899e-06
0.00012283411
0.00052192558
1.9607377e-06
3.8328012e-05
0.0010033583
5.2559709e-05
9.7001691e-05
0.002520996
1.3898326e-05
0.00023962275
0.0031202821
-4.010708e-05
0.00029033445
0.0030092518
-5.2019e-05
0.0002670161
0.0025702631
-3.4232017e-05
0.00022369945
0.0019950212
-1.126332e-05
0.00017296587
0.0013161828
1.3497285e-06
0.00010425269
0.00050240593
2.2284968e-06
2.969656e-05
0.0011629408
4.4059977e-05
0.00014339676
0.0028972746
9.6838846e-06
0.00031050458
0.0035237694
-3.8059763e-05
0.00033851477
0.0033888122
-5.007156e-05
0.00028303065
0.0029665419
-3.729783e-05
0.00022068701
0.0024581215
-1.7470321e-05
0.0001738369
0.0018944557
-2.0819273e-06
0.00012996976
0.0012524206
3.5795858e-06
7.3164594e-05
0.00048192434
1.9860417e-06
1.6480072e-05
0.0013531196
4.6935044e-05
0.00020415352
0.0032557159
2.4297659e-05
0.00038393758
0.003845389
-1.7914569e-05
0.00037625002
0.0036738753
-3.3300247e-05
0.00029000489
0.0032792531
-2.8989921e-05
0.00021079613
0.002833518
-1.7044122e-05
0.00015575344
0.0023483775
-4.798164e-06
0.00011785201
0.0018112295
2.6432829e-06
8.1905879e-05
0.0011990787
3.7455214e-06
3.6740305e-05
0.00046331993
1.321038e-06
1.3845443e-11
0.001579127
6.6356037e-05
0.00027757471
0.0035655574
5.4710378e-05
0.00044811105
0.0040559605
1.2816681e-05
0.0003937916
0.0038576841
-8.9921285e-06
0.00028501501
0.0035170536
-1.4024293e-05
0.00019919932
0.0031473727
-1.066591e-05
0.00013935113
0.0027370264
-4.0574816e-06
9.8239557e-05
0.0022738755
1.5857642e-06
6.7739548e-05
0.0017519094
3.7623314e-06
3.6861928e-05
0.0011571244
2.5040612e-06
1.965991e-11
0.00044691602
3.2218001e-07
-1.8553883e-05
0.0018387523
0.00010123702
0.00035642512
0.0037872196
9.0547744e-05
0.0004852007
0.0041335332
4.3537391e-05
0.00038188184
0.003940703
1.5121126e-05
0.00026380164
0.0036816327
2.4810994e-06
0.00018101015
0.0033990468
-1.1034457e-06
0.00012312591
0.0030689406
4.9003899e-08
8.2022342e-05
0.0026793904
2.4299057e-06
5.2211565e-05
0.0022268401
3.5801012e-06
2.7545815e-05
0.0017105876
2.5740454e-06
1.2302124e-11
0.0011237896
2.7176639e-07
-3.2346431e-05
0.00043200824
-1.0182746e-06
-3.7633622e-05
0.0021188726
0.00014402402
0.00042876243
0.0038760739
0.00011652733
0.00047723261
0.0040712999
6.3067535e-05
0.00033523168
0.0039316675
3.1837473e-05
0.00022211262
0.0037741238
1.5438593e-05
0.00014969514
0.0035835225
7.8528429e-06
0.00010003405
0.003337098
5.2115894e-06
6.4744058e-05
0.0030257613
4.7002628e-06
3.9052645e-05
0.0026461133
4.2558953e-06
1.8989401e-05
0.002197579
2.7081753e-06
5.6720631e-12
0.0016814272
-2.1687137e-08
-2.4118801e-05
0.0010960134
-2.6636528e-06
-5.4545829e-05
0.00041718459
-2.7879838e-06
-5.4534357e-05
0.0023946792
0.00017058176
0.00046591222
0.0037895584
0.00011288937
0.00039324206
0.0038800041
6.0530963e-05
0.00024092932
0.003842481
3.4097236e-05
0.00015144765
0.003796147
1.9459325e-05
9.9443854e-05
0.0036989988
1.1707443e-05
6.5620603e-05
0.0035375207
7.8811629e-06
4.2050477e-05
0.0033064348
6.0297454e-06
2.4864955e-05
0.0030034516
4.7538782e-06
1.1571676e-05
0.0026277834
3.104453e-06
1.9129574e-12
0.0021796615
6.2399393e-07
-1.2636929e-05
0.0016605251
-2.5018414e-06
-3.1000773e-05
0.0010715153
-5.0787786e-06
-5.8246778e-05
0.00040043146
-4.5675819e-06
-6.2783145e-05
0.0026151635
0.00011075026
0.00035344865
0.0034908121
5.5473838e-05
0.00016005834
0.0035908018
2.7869874e-05
8.0568095e-05
0.0036911218
1.6587308e-05
5.1226484e-05
0.0037551404
1.0207604e-05
3.3590658e-05
0.003749301
6.5902917e-06
2.2191823e-05
0.0036711675
4.5847983e-06
1.4326975e-05
0.0035195608
3.4520735e-06
8.4967667e-06
0.0032937319
2.6807966e-06
3.9146261e-06
0.0029934191
1.9000192e-06
1.9970869e-12
0.0026185702
8.6216931e-07
-3.8522791e-06
0.0021693532
-5.405548e-07
-8.5886039e-06
0.0016463766
-2.2046976e-06
-1.6310378e-05
0.0010507881
-3.603601e-06
-3.0936668e-05
0.00038070959
-3.5085519e-06
-4.3389617e-05
9.3021144e-05
1.5218387e-05
-1.4341626e-05
0.00022746758
4.2769315e-05
-1.2137365e-05
0.0002175169
2.5137814e-05
-1.4002014e-05
0.00035677988
6.8390434e-05
-4.3070335e-06
0.00062558872
6.4859376e-05
-2.7365043e-06
0.0003341993
2.0654103e-05
5.4133302e-07
0.00047906003
8.4878186e-05
5.3949233e-06
0.0010119667
9.3853996e-05
2.3803537e-05
0.00097912491
4.8861124e-05
3.1567634e-05
0.00043424717
1.2263846e-05
1.8416704e-05
0.00059370392
9.0943662e-05
1.6305369e-05
0.0013668985
0.00010070606
5.8892305e-05
0.0015709632
5.6455651e-05
8.6513069e-05
0.001237416
2.3017666e-05
7.4562629e-05
0.00049924019
6.1795862e-06
3.1725103e-05
0.00070403751
8.8571025e-05
2.93242e-05
0.0017022849
8.8613635e-05
9.8212292e-05
0.0020971152
3.9170541e-05