/*--------------------------------*- C++ -*----------------------------------*\
| =========                 |                                                 |
| \\      /  F ield         | OpenFOAM: The Open Source CFD Toolbox           |
|  \\    /   O peration     | Version:  2412                                  |
|   \\  /    A nd           | Website:  www.openfoam.com                      |
|    \\/     M anipulation  |                                                 |
\*---------------------------------------------------------------------------*/
FoamFile
{
    version     2.0;
    format      ascii;
    arch        "LSB;label=32;scalar=64";
    class       volScalarField;
    location    "53";
    object      T;
}
// * * * * * * * * * * * * * * * * * * * * * * * * * * * * * * * * * * * * * //

dimensions      [0 0 0 1 0 0 0];

internalField   nonuniform List<scalar> 
76360
(
293.498
293.498
293.498
293.498
293.498
293.498
293.498
293.498
293.498
293.498
293.498
293.498
293.498
293.498
293.498
293.498
293.498
293.498
293.498
293.498
293.498
293.498
293.498
293.498
293.498
293.498
293.498
293.498
293.498
293.498
293.498
293.498
293.498
293.498
293.498
293.498
293.498
293.498
293.498
293.498
293.498
293.498
293.498
293.498
293.498
293.498
293.498
293.498
293.498
293.498
293.498
293.498
293.498
293.498
293.498
293.498
293.498
293.498
293.498
293.498
293.498
293.498
293.498
293.498
293.498
293.498
293.498
293.498
293.498
293.498
293.498
293.498
293.498
293.498
293.498
293.498
293.498
293.498
293.498
293.498
293.498
293.498
293.498
293.498
293.498
293.498
293.498
293.498
293.498
293.498
293.498
293.498
293.498
293.498
293.498
293.498
293.498
293.498
293.498
293.498
293.498
293.498
293.498
293.498
293.498
293.498
293.498
293.498
293.498
293.498
293.498
293.498
293.498
293.498
293.498
293.498
293.498
293.498
293.498
293.498
293.498
293.498
293.498
293.498
293.498
293.498
293.498
293.498
293.498
293.498
293.498
293.498
293.498
293.498
293.498
293.498
293.498
293.498
293.498
293.498
293.498
293.498
293.498
293.498
293.498
293.498
293.498
293.498
293.498
293.498
293.498
293.498
293.498
293.498
293.498
293.498
293.498
293.498
293.498
293.498
293.498
293.498
293.498
293.498
293.498
293.49801
293.498
293.498
293.498
293.498
293.498
293.498
293.498
293.498
293.498
293.498
293.498
293.498
293.498
293.498
293.498
293.498
293.498
293.498
293.498
293.498
293.498
293.498
293.498
293.498
293.498
293.498
293.498
293.498
293.498
293.498
293.498
293.498
293.498
293.498
293.498
293.498
293.498
293.498
293.498
293.498
293.498
293.498
293.498
293.498
293.498
293.498
293.498
293.498
293.498
293.498
293.498
293.498
293.498
293.498
293.49806
293.49801
293.49801
293.498
293.498
293.498
293.498
293.498
293.498
293.498
293.498
293.498
293.498
293.498
293.498
293.498
293.498
293.498
293.498
293.498
293.498
293.498
293.498
293.498
293.498
293.498
293.498
293.498
293.498
293.498
293.498
293.498
293.498
293.498
293.498
293.498
293.498
293.498
293.498
293.498
293.498
293.498
293.498
293.498
293.498
293.498
293.498
293.498
293.498
293.498
293.498
293.498
293.498
293.498
293.498
293.498
293.498
293.498
293.498
293.498
293.498
293.498
293.498
293.498
293.498
293.498
293.49823
293.49802
293.49802
293.498
293.498
293.498
293.498
293.498
293.498
293.498
293.498
293.498
293.498
293.498
293.498
293.498
293.498
293.498
293.498
293.498
293.498
293.498
293.498
293.498
293.498
293.498
293.498
293.498
293.498
293.498
293.498
293.498
293.498
293.498
293.498
293.498
293.498
293.498
293.498
293.498
293.498
293.498
293.498
293.498
293.498
293.498
293.498
293.498
293.498
293.498
293.498
293.498
293.498
293.498
293.498
293.498
293.498
293.498
293.498
293.498
293.498
293.498
293.498
293.498
293.498
293.498
293.498
293.498
293.498
293.498
293.498
293.498
293.498
293.498
293.498
293.498
293.498
293.498
293.49888
293.4981
293.4981
293.49801
293.49801
293.49801
293.498
293.498
293.498
293.498
293.498
293.498
293.498
293.498
293.498
293.498
293.498
293.498
293.498
293.498
293.498
293.498
293.498
293.498
293.498
293.498
293.498
293.498
293.498
293.498
293.498
293.498
293.498
293.498
293.498
293.498
293.498
293.498
293.498
293.498
293.498
293.498
293.498
293.498
293.498
293.498
293.498
293.498
293.498
293.498
293.498
293.498
293.498
293.498
293.498
293.498
293.498
293.498
293.498
293.498
293.498
293.498
293.498
293.498
293.498
293.498
293.498
293.498
293.498
293.498
293.498
293.498
293.498
293.498
293.498
293.498
293.498
293.498
293.498
293.498
293.498
293.498
293.498
293.498
293.498
293.498
293.498
293.498
293.498
293.498
293.498
293.50127
293.4984
293.49843
293.49804
293.49803
293.49804
293.498
293.498
293.498
293.498
293.498
293.498
293.498
293.498
293.498
293.498
293.498
293.498
293.498
293.498
293.498
293.498
293.498
293.498
293.498
293.498
293.498
293.498
293.498
293.498
293.498
293.498
293.498
293.498
293.498
293.498
293.498
293.498
293.498
293.498
293.498
293.498
293.498
293.498
293.498
293.498
293.498
293.498
293.498
293.498
293.498
293.498
293.498
293.498
293.498
293.498
293.498
293.498
293.498
293.498
293.498
293.498
293.498
293.498
293.498
293.498
293.498
293.498
293.498
293.498
293.498
293.498
293.498
293.498
293.498
293.498
293.498
293.498
293.498
293.498
293.498
293.498
293.498
293.498
293.498
293.498
293.498
293.498
293.498
293.498
293.498
293.498
293.498
293.498
293.498
293.498
293.498
293.498
293.498
293.498
293.498
293.498
293.498
293.498
293.498
293.50965
293.4995
293.49978
293.49815
293.49814
293.49819
293.49801
293.49801
293.49801
293.49802
293.498
293.498
293.498
293.498
293.498
293.498
293.498
293.498
293.498
293.498
293.498
293.498
293.498
293.498
293.498
293.498
293.498
293.498
293.498
293.498
293.498
293.498
293.498
293.498
293.498
293.498
293.498
293.498
293.498
293.498
293.498
293.498
293.498
293.498
293.498
293.498
293.498
293.498
293.498
293.498
293.498
293.498
293.498
293.498
293.498
293.498
293.498
293.498
293.498
293.498
293.498
293.498
293.498
293.498
293.498
293.498
293.498
293.498
293.498
293.498
293.498
293.498
293.498
293.498
293.498
293.498
293.498
293.498
293.498
293.498
293.498
293.498
293.498
293.498
293.498
293.498
293.498
293.498
293.498
293.498
293.498
293.498
293.498
293.498
293.498
293.498
293.498
293.498
293.498
293.498
293.498
293.498
293.498
293.498
293.498
293.498
293.498
293.498
293.498
293.498
293.498
293.498
293.498
293.498
293.498
293.498
293.498
293.498
293.498
293.498
293.53755
293.50339
293.50522
293.49857
293.49858
293.49893
293.49805
293.49804
293.49804
293.4981
293.498
293.498
293.498
293.498
293.49801
293.498
293.498
293.498
293.498
293.498
293.498
293.498
293.498
293.498
293.498
293.498
293.498
293.498
293.498
293.498
293.498
293.498
293.498
293.498
293.498
293.498
293.498
293.498
293.498
293.498
293.498
293.498
293.498
293.498
293.498
293.498
293.498
293.498
293.498
293.498
293.498
293.498
293.498
293.498
293.498
293.498
293.498
293.498
293.498
293.498
293.498
293.498
293.498
293.498
293.498
293.498
293.498
293.498
293.498
293.498
293.498
293.498
293.498
293.498
293.498
293.498
293.498
293.498
293.498
293.498
293.498
293.498
293.498
293.498
293.498
293.498
293.498
293.498
293.498
293.498
293.498
293.498
293.498
293.498
293.498
293.498
293.498
293.498
293.498
293.498
293.498
293.498
293.498
293.498
293.498
293.498
293.498
293.498
293.498
293.498
293.498
293.498
293.498
293.498
293.498
293.498
293.498
293.498
293.498
293.498
293.498
293.498
293.498
293.498
293.498
293.498
293.498
293.498
293.498
293.498
293.498
293.498
293.498
293.498
293.498
293.498
293.62509
293.51624
293.52693
293.50006
293.50036
293.50263
293.4982
293.49816
293.49821
293.49856
293.49802
293.49801
293.49801
293.49802
293.49806
293.498
293.498
293.498
293.498
293.498
293.49801
293.498
293.498
293.498
293.498
293.498
293.498
293.498
293.498
293.498
293.498
293.498
293.498
293.498
293.498
293.498
293.498
293.498
293.498
293.498
293.498
293.498
293.498
293.498
293.498
293.498
293.498
293.498
293.498
293.498
293.498
293.498
293.498
293.498
293.498
293.498
293.498
293.498
293.498
293.498
293.498
293.498
293.498
293.498
293.498
293.498
293.498
293.498
293.498
293.498
293.498
293.498
293.498
293.498
293.498
293.498
293.498
293.498
293.498
293.498
293.498
293.498
293.498
293.498
293.498
293.498
293.498
293.498
293.498
293.498
293.498
293.498
293.498
293.498
293.498
293.498
293.498
293.498
293.498
293.498
293.498
293.498
293.498
293.498
293.498
293.498
293.498
293.498
293.498
293.498
293.498
293.498
293.498
293.498
293.498
293.498
293.498
293.498
293.498
293.498
293.498
293.498
293.498
293.498
293.498
293.498
293.498
293.498
293.498
293.498
293.498
293.498
293.498
293.498
293.498
293.498
293.498
293.498
293.498
293.498
293.498
293.498
293.498
293.498
293.498
293.498
293.498
293.498
293.498
293.498
293.498
293.498
293.498
293.87966
293.55586
293.6122
293.505
293.5074
293.52108
293.49875
293.49866
293.49905
293.50131
293.49807
293.49804
293.49804
293.4981
293.49836
293.49801
293.498
293.498
293.498
293.49801
293.49803
293.498
293.498
293.498
293.498
293.498
293.498
293.498
293.498
293.498
293.498
293.498
293.498
293.498
293.498
293.498
293.498
293.498
293.498
293.498
293.498
293.498
293.498
293.498
293.498
293.498
293.498
293.498
293.498
293.498
293.498
293.498
293.498
293.498
293.498
293.498
293.498
293.498
293.498
293.498
293.498
293.498
293.498
293.498
293.498
293.498
293.498
293.498
293.498
293.498
293.498
293.498
293.498
293.498
293.498
293.498
293.498
293.498
293.498
293.498
293.498
293.498
293.498
293.498
293.498
293.498
293.498
293.498
293.498
293.498
293.498
293.498
293.498
293.498
293.498
293.498
293.498
293.498
293.498
293.498
293.498
293.498
293.498
293.498
293.498
293.498
293.498
293.498
293.498
293.498
293.498
293.498
293.498
293.498
293.498
293.498
293.498
293.498
293.498
293.498
293.498
293.498
293.498
293.498
293.498
293.498
293.498
293.498
293.498
293.498
293.498
293.498
293.498
293.498
293.498
293.498
293.498
293.498
293.498
293.498
293.498
293.498
293.498
293.498
293.498
293.498
293.498
293.498
293.498
293.498
293.498
293.498
293.498
293.498
293.498
293.498
293.498
293.498
293.498
293.498
293.498
293.498
293.498
293.498
293.498
293.498
293.498
293.498
293.498
293.498
293.498
294.52668
293.67069
293.93784
293.52018
293.53454
293.61132
293.50062
293.50062
293.50322
293.51761
293.49827
293.49819
293.49819
293.49857
293.50028
293.49802
293.49801
293.49801
293.49801
293.49805
293.49822
293.498
293.498
293.498
293.498
293.498
293.498
293.49802
293.498
293.498
293.498
293.498
293.498
293.498
293.498
293.498
293.498
293.498
293.498
293.498
293.498
293.498
293.498
293.498
293.498
293.498
293.498
293.498
293.498
293.498
293.498
293.498
293.498
293.498
293.498
293.498
293.498
293.498
293.498
293.498
293.498
293.498
293.498
293.498
293.498
293.498
293.498
293.498
293.498
293.498
293.498
293.498
293.498
293.498
293.498
293.498
293.498
293.498
293.498
293.498
293.498
293.498
293.498
293.498
293.498
293.498
293.498
293.498
293.498
293.498
293.498
293.498
293.498
293.498
293.498
293.498
293.498
293.498
293.498
293.498
293.498
293.498
293.498
293.498
293.498
293.498
293.498
293.498
293.498
293.498
293.498
293.498
293.498
293.498
293.498
293.498
293.498
293.498
293.498
293.498
293.498
293.498
293.498
293.498
293.498
293.498
293.498
293.498
293.498
293.498
293.498
293.498
293.498
293.498
293.498
293.498
293.498
293.498
293.498
293.498
293.498
293.498
293.498
293.498
293.498
293.498
293.498
293.498
293.498
293.498
293.498
293.498
293.498
293.498
293.498
293.498
293.498
293.498
293.498
293.498
293.498
293.498
293.498
293.498
293.498
293.498
293.498
293.498
293.498
293.498
293.498
293.498
293.498
293.498
293.498
293.498
293.498
293.498
293.498
293.498
293.498
293.498
293.498
293.498
293.498
293.498
293.498
293.498
293.498
293.498
293.99023
295.595
295.10192
293.56499
293.64035
294.03239
293.5066
293.50805
293.52343
293.61102
293.499
293.49875
293.49896
293.50139
293.51235
293.4981
293.49805
293.49804
293.49807
293.49834
293.49945
293.49801
293.498
293.498
293.498
293.49801
293.49803
293.49813
293.498
293.498
293.498
293.498
293.498
293.498
293.498
293.49801
293.498
293.498
293.498
293.498
293.498
293.498
293.498
293.498
293.498
293.498
293.498
293.498
293.498
293.498
293.498
293.498
293.498
293.498
293.498
293.498
293.498
293.498
293.498
293.498
293.498
293.498
293.498
293.498
293.498
293.498
293.498
293.498
293.498
293.498
293.498
293.498
293.498
293.498
293.498
293.498
293.498
293.498
293.498
293.498
293.498
293.498
293.498
293.498
293.498
293.498
293.498
293.498
293.498
293.498
293.498
293.498
293.498
293.498
293.498
293.498
293.498
293.498
293.498
293.498
293.498
293.498
293.498
293.498
293.498
293.498
293.498
293.498
293.498
293.498
293.498
293.498
293.498
293.498
293.498
293.498
293.498
293.498
293.498
293.498
293.498
293.498
293.498
293.498
293.498
293.498
293.498
293.498
293.498
293.498
293.498
293.498
293.498
293.498
293.498
293.498
293.498
293.498
293.498
293.498
293.498
293.498
293.498
293.498
293.498
293.498
293.498
293.498
293.498
293.498
293.498
293.498
293.498
293.498
293.498
293.498
293.498
293.498
293.498
293.498
293.498
293.498
293.498
293.498
293.498
293.498
293.498
293.498
293.498
293.498
293.498
293.498
293.498
293.498
293.498
293.498
293.498
293.498
293.498
293.498
293.498
293.498
293.498
293.498
293.498
293.498
293.498
293.498
293.498
293.498
293.498
293.498
293.498
293.498
293.498
293.498
293.498
293.498
293.498
293.498
293.498
293.498
293.498
293.498
293.498
293.498
293.498
293.498
293.498
293.498
293.70533
294.68737
294.10648
296.64801
298.41344
296.07371
297.544
296.82458
295.45442
298.61358
297.92042
297.55332
294.79713
296.5563
293.52605
293.53827
293.61905
296.0544
295.09972
294.11973
293.50155
293.50099
293.50262
293.51815
293.58505
293.4984
293.49823
293.49818
293.49844
293.50017
293.50719
293.49804
293.49802
293.49801
293.49801
293.49804
293.49821
293.49885
293.498
293.498
293.498
293.498
293.498
293.498
293.49802
293.49807
293.498
293.498
293.498
293.498
293.498
293.498
293.498
293.498
293.49801
293.498
293.498
293.498
293.498
293.498
293.498
293.498
293.498
293.498
293.498
293.498
293.498
293.498
293.498
293.498
293.498
293.498
293.498
293.498
293.498
293.498
293.498
293.498
293.498
293.498
293.498
293.498
293.498
293.498
293.498
293.498
293.498
293.498
293.498
293.498
293.498
293.498
293.498
293.498
293.498
293.498
293.498
293.498
293.498
293.498
293.498
293.498
293.498
293.498
293.498
293.498
293.498
293.498
293.498
293.498
293.498
293.498
293.498
293.498
293.498
293.498
293.498
293.498
293.498
293.498
293.498
293.498
293.498
293.498
293.498
293.498
293.498
293.498
293.498
293.498
293.498
293.498
293.498
293.498
293.498
293.498
293.498
293.498
293.498
293.498
293.498
293.498
293.498
293.498
293.498
293.498
293.498
293.498
293.498
293.498
293.498
293.498
293.498
293.498
293.498
293.498
293.498
293.498
293.498
293.498
293.498
293.498
293.498
293.498
293.498
293.498
293.498
293.498
293.498
293.498
293.498
293.498
293.498
293.498
293.498
293.498
293.498
293.498
293.498
293.498
293.498
293.498
293.498
293.498
293.498
293.498
293.498
293.498
293.498
293.498
293.498
293.498
293.498
293.498
293.498
293.498
293.498
293.498
293.498
293.498
293.498
293.498
293.498
293.498
293.498
293.498
293.498
293.498
293.498
293.498
293.498
293.498
293.498
293.498
293.498
293.498
293.498
293.498
293.498
293.498
293.498
293.498
293.498
293.498
293.498
293.498
293.498
293.498
293.498
293.498
293.498
293.498
293.498
293.498
293.498
293.498
293.498
293.498
293.498
293.60024
294.13409
293.70863
295.11612
296.45505
294.66085
295.72298
295.59576
294.11688
296.12293
295.37023
295.26824
293.81486
294.51697
299.94187
301.81457
298.89953
300.42936
301.3239
300.08703
298.01361
302.08608
299.46166
300.0661
297.542
293.51112
293.51167
293.52068
294.23976
293.86736
293.61924
296.52509
295.34098
296.73839
295.4292
294.00374
293.49956
293.499
293.49895
293.50072
293.51183
293.55349
293.49816
293.49808
293.49804
293.49806
293.49824
293.49933
293.50331
293.49801
293.49801
293.498
293.498
293.498
293.49802
293.49812
293.49844
293.498
293.498
293.498
293.498
293.498
293.498
293.498
293.49801
293.49803
293.498
293.498
293.498
293.498
293.498
293.498
293.498
293.498
293.498
293.498
293.498
293.498
293.498
293.498
293.498
293.498
293.498
293.498
293.498
293.498
293.498
293.498
293.498
293.498
293.498
293.498
293.498
293.498
293.498
293.498
293.498
293.498
293.498
293.498
293.498
293.498
293.498
293.498
293.498
293.498
293.498
293.498
293.498
293.498
293.498
293.498
293.498
293.498
293.498
293.498
293.498
293.498
293.498
293.498
293.498
293.498
293.498
293.498
293.498
293.498
293.498
293.498
293.498
293.498
293.498
293.498
293.498
293.498
293.498
293.498
293.498
293.498
293.498
293.498
293.498
293.498
293.498
293.498
293.498
293.498
293.498
293.498
293.498
293.498
293.498
293.498
293.498
293.498
293.498
293.498
293.498
293.498
293.498
293.498
293.498
293.498
293.498
293.498
293.498
293.498
293.498
293.498
293.498
293.498
293.498
293.498
293.498
293.498
293.498
293.498
293.498
293.498
293.498
293.498
293.498
293.498
293.498
293.498
293.498
293.498
293.498
293.498
293.498
293.498
293.498
293.498
293.498
293.498
293.498
293.498
293.498
293.498
293.498
293.498
293.498
293.498
293.498
293.498
293.498
293.498
293.498
293.498
293.498
293.498
293.498
293.498
293.498
293.498
293.498
293.498
293.498
293.498
293.498
293.498
293.498
293.498
293.498
293.498
293.498
293.498
293.498
293.498
293.498
293.498
293.498
293.498
293.498
293.498
293.498
293.498
293.498
293.498
293.498
293.498
293.498
293.498
293.498
293.498
293.498
293.498
293.498
293.498
293.498
293.498
293.498
293.498
293.498
293.498
293.498
293.498
293.498
293.498
293.498
293.498
293.498
293.498
293.498
293.498
293.498
293.498
293.498
293.498
293.55485
293.90365
293.59347
294.23242
295.1872
294.06763
294.88988
294.82278
293.64451
294.77906
294.50697
294.11968
293.58417
293.91569
297.72539
298.73636
296.83549
297.60882
298.82378
297.81863
296.42273
297.98848
296.63397
295.80647
294.85236
304.64902
307.95342
303.04976
305.60403
302.51217
306.92582
305.12223
301.1112
303.71557
302.13257
299.37439
306.39769
300.90465
303.3427
298.47512
293.50451
293.50356
293.50383
293.67225
293.60206
293.51805
294.33219
293.90798
294.35932
293.9164
293.5848
296.50616
301.59229
298.89878
295.23948
296.00765
294.94305
293.80928
293.49871
293.49837
293.49824
293.49846
293.49956
293.50638
293.52972
293.49807
293.49803
293.49801
293.49801
293.49803
293.49814
293.49878
293.50065
293.49801
293.498
293.498
293.498
293.498
293.498
293.49801
293.49806
293.49819
293.498
293.498
293.498
293.498
293.498
293.498
293.498
293.498
293.498
293.49801
293.498
293.498
293.498
293.498
293.498
293.498
293.498
293.498
293.498
293.498
293.498
293.498
293.498
293.498
293.498
293.498
293.498
293.498
293.498
293.498
293.498
293.498
293.498
293.498
293.498
293.498
293.498
293.498
293.498
293.498
293.498
293.498
293.498
293.498
293.498
293.498
293.498
293.498
293.498
293.498
293.498
293.498
293.498
293.498
293.498
293.498
293.498
293.498
293.498
293.498
293.498
293.498
293.498
293.498
293.498
293.498
293.498
293.498
293.498
293.498
293.498
293.498
293.498
293.498
293.498
293.498
293.498
293.498
293.498
293.498
293.498
293.498
293.498
293.498
293.498
293.498
293.498
293.498
293.498
293.498
293.498
293.498
293.498
293.498
293.498
293.498
293.498
293.498
293.498
293.498
293.498
293.498
293.498
293.498
293.498
293.498
293.498
293.498
293.498
293.498
293.498
293.498
293.498
293.498
293.498
293.498
293.498
293.498
293.498
293.498
293.498
293.498
293.498
293.498
293.498
293.498
293.498
293.498
293.498
293.498
293.498
293.498
293.498
293.498
293.498
293.498
293.498
293.498
293.498
293.498
293.498
293.498
293.498
293.498
293.498
293.498
293.498
293.498
293.498
293.498
293.498
293.498
293.498
293.498
293.498
293.498
293.498
293.498
293.498
293.498
293.498
293.498
293.498
293.498
293.498
293.498
293.498
293.498
293.498
293.498
293.498
293.498
293.498
293.498
293.498
293.498
293.498
293.498
293.498
293.498
293.498
293.498
293.498
293.498
293.498
293.498
293.498
293.498
293.498
293.498
293.498
293.498
293.498
293.498
293.498
293.498
293.498
293.498
293.498
293.498
293.498
293.498
293.498
293.498
293.498
293.498
293.498
293.498
293.498
293.498
293.498
293.498
293.498
293.498
293.498
293.498
293.498
293.498
293.498
293.52951
293.77207
293.54748
293.91363
294.66731
293.84037
294.51211
294.46969
293.54685
294.2759
294.14422
293.79297
293.53154
293.71703
296.22046
296.81437
295.83808
296.34934
297.14171
296.69141
295.4463
295.8074
295.3086
294.33805
294.07759
301.24136
303.10367
299.92834
301.34005
299.74216
303.2328
301.8062
298.63818
300.62299
299.40474
297.36273
300.40115
298.49047
296.35261
295.20205
313.54691
319.91221
313.1775
318.91302
312.25849
311.00028
315.793
317.32844
310.3288
308.86515
308.84428
317.54518
306.85931
314.98505
304.85103
310.55617
308.44349
303.16515
306.01323
304.25184
300.94098
318.7064
317.55093
310.72198
313.69785
315.36475
306.85502
293.50132
293.5004
293.5
293.55866
293.54007
293.503
293.69343
293.61559
293.69815
293.61874
293.51077
294.24028
296.58327
295.34169
293.84579
294.09132
293.77154
293.5481
301.1868
312.69138
298.5
308.48857
295.3632
299.9915
297.61953
294.56615
293.67312
294.76978
294.25842
293.49832
293.49815
293.49807
293.49811
293.49823
293.49888
293.5029
293.51319
293.49803
293.49801
293.498
293.498
293.498
293.49801
293.49808
293.4984
293.4991
293.498
293.498
293.498
293.498
293.498
293.498
293.498
293.49801
293.49803
293.49808
293.498
293.498
293.498
293.498
293.498
293.498
293.498
293.498
293.498
293.498
293.49801
293.498
293.498
293.498
293.498
293.498
293.498
293.498
293.498
293.498
293.498
293.498
293.49801
293.498
293.498
293.498
293.498
293.498
293.498
293.498
293.498
293.498
293.498
293.498
293.498
293.498
293.498
293.498
293.498
293.498
293.498
293.498
293.498
293.498
293.498
293.498
293.498
293.498
293.498
293.498
293.498
293.498
293.498
293.498
293.498
293.498
293.498
293.498
293.498
293.498
293.498
293.498
293.498
293.498
293.498
293.498
293.498
293.498
293.498
293.498
293.498
293.498
293.498
293.498
293.498
293.498
293.498
293.498
293.498
293.498
293.498
293.498
293.498
293.498
293.498
293.498
293.498
293.498
293.498
293.498
293.498
293.498
293.498
293.498
293.498
293.498
293.498
293.498
293.498
293.498
293.498
293.498
293.498
293.498
293.498
293.498
293.498
293.498
293.498
293.498
293.498
293.498
293.498
293.498
293.498
293.498
293.498
293.498
293.498
293.498
293.498
293.498
293.498
293.498
293.498
293.498
293.498
293.498
293.498
293.498
293.498
293.498
293.498
293.498
293.498
293.498
293.498
293.498
293.498
293.498
293.498
293.498
293.498
293.498
293.498
293.498
293.498
293.498
293.498
293.498
293.498
293.498
293.498
293.498
293.498
293.498
293.498
293.498
293.498
293.498
293.498
293.498
293.498
293.498
293.498
293.498
293.498
293.498
293.498
293.498
293.498
293.498
293.498
293.498
293.498
293.498
293.498
293.498
293.498
293.498
293.498
293.498
293.498
293.498
293.498
293.498
293.498
293.498
293.498
293.498
293.498
293.498
293.498
293.498
293.498
293.498
293.498
293.498
293.498
293.498
293.498
293.498
293.498
293.498
293.498
293.498
293.498
293.498
293.498
293.498
293.498
293.498
293.498
293.498
293.498
293.498
293.498
293.498
293.498
293.498
293.498
293.498
293.498
293.498
293.498
293.51527
293.66226
293.5217
293.75942
294.36146
293.70574
294.21204
294.23303
293.51953
294.00953
293.90638
293.66097
293.51306
293.61797
295.56792
295.98435
295.35389
295.71487
296.38185
296.12374
294.96842
294.96133
294.70215
293.91425
293.811
299.01533
300.17438
298.43761
299.40221
297.89755
300.808
300.14874
297.38478
298.58846
298.00432
296.12285
297.29197
296.53475
294.57879
294.25625
308.40095
314.19511
312.95772
305.80894
306.94292
306.48265
310.93405
311.79919
304.46046
303.70139
304.86729
312.41952
303.3389
310.45668
301.51852
306.32508
304.69021
300.17962
302.48648
301.031
298.53423
311.61562
310.32377
303.17625
307.93101
308.83211
300.73733
325.51804
329.29605
328.37986
324.46121
328.58299
327.60013
327.15791
321.60186
323.04674
325.90474
324.62808
326.06105
320.41782
333.07405
331.57708
330.85775
332.52087
317.99145
329.8133
330.74613
331.62992
328.75554
312.09891
322.51088
309.95199
320.31336
307.13128
313.51301
311.38421
305.34277
308.26234
306.46415
302.68054
324.19376
323.04339
327.44734
326.3371
319.20428
320.94608
324.30207
322.53614
293.49961
293.49916
293.49872
293.52557
293.51747
293.49987
293.5686
293.54711
293.5712
293.54902
293.50093
293.65981
294.6719
294.32364
293.59387
293.61872
293.56832
293.50429
296.26722
304.45187
295.11046
301.74982
293.91554
295.69363
294.73102
293.68258
293.52894
293.78504
293.62276
312.08892
329.60968
329.04164
327.98845
328.56876
307.74971
326.05006
324.85857
324.28823
326.6362
298.31639
309.34086
296.49323
305.25334
293.57727
294.36559
296.78507
295.52793
293.49814
293.49806
293.49803
293.49803
293.49806
293.49811
293.49854
293.50044
293.50391
293.49801
293.498
293.498
293.498
293.498
293.498
293.49801
293.49804
293.49817
293.49842
293.498
293.498
293.498
293.498
293.498
293.498
293.498
293.498
293.498
293.49801
293.49808
293.498
293.498
293.498
293.498
293.498
293.498
293.498
293.498
293.498
293.498
293.498
293.49803
293.498
293.498
293.498
293.498
293.498
293.498
293.498
293.498
293.498
293.498
293.498
293.498
293.49801
293.498
293.498
293.498
293.498
293.498
293.498
293.498
293.498
293.498
293.498
293.498
293.498
293.498
293.498
293.498
293.498
293.498
293.498
293.498
293.498
293.498
293.498
293.498
293.498
293.498
293.498
293.498
293.498
293.498
293.498
293.498
293.498
293.498
293.498
293.498
293.498
293.498
293.498
293.498
293.498
293.498
293.498
293.498
293.498
293.498
293.498
293.498
293.498
293.498
293.498
293.498
293.498
293.498
293.498
293.498
293.498
293.498
293.498
293.498
293.498
293.498
293.498
293.498
293.498
293.498
293.498
293.498
293.498
293.498
293.498
293.498
293.498
293.498
293.498
293.498
293.498
293.498
293.498
293.498
293.498
293.498
293.498
293.498
293.498
293.498
293.498
293.498
293.498
293.498
293.498
293.498
293.498
293.498
293.498
293.498
293.498
293.498
293.498
293.498
293.498
293.498
293.498
293.498
293.498
293.498
293.498
293.498
293.498
293.498
293.498
293.498
293.498
293.498
293.498
293.498
293.498
293.498
293.498
293.498
293.498
293.498
293.498
293.498
293.498
293.498
293.498
293.498
293.498
293.498
293.498
293.498
293.498
293.498
293.498
293.498
293.498
293.498
293.498
293.498
293.498
293.498
293.498
293.498
293.498
293.498
293.498
293.498
293.498
293.498
293.498
293.498
293.498
293.498
293.498
293.498
293.498
293.498
293.498
293.498
293.498
293.498
293.498
293.498
293.498
293.498
293.498
293.498
293.498
293.498
293.498
293.498
293.498
293.498
293.498
293.498
293.498
293.498
293.498
293.498
293.498
293.498
293.498
293.498
293.498
293.498
293.498
293.498
293.498
293.498
293.498
293.498
293.498
293.498
293.498
293.498
293.498
293.498
293.498
293.498
293.498
293.498
293.498
293.498
293.498
293.58819
293.50646
293.51109
293.64421
294.0455
293.6002
293.87186
293.97811
293.50748
293.79244
293.69325
293.58166
293.50389
293.55297
295.14706
295.43794
294.90928
295.15106
295.87607
295.57275
294.64153
294.48095
294.2803
293.73131
293.67208
297.99782
298.81332
297.64103
298.31935
297.0343
299.654
299.23952
296.73724
297.60456
297.26276
295.48527
295.99049
295.57905
294.05112
293.92105
305.16553
310.10608
309.49429
302.25596
302.76964
304.24992
308.42393
308.89228
301.60254
301.22635
302.25719
309.05655
301.51773
308.05598
299.27418
303.5203
302.69673
298.61274
300.03387
299.2949
296.99781
306.85175
306.20985
299.1444
304.92544
305.41779
298.09554
323.64257
320.20754
324.70377
319.01846
323.11759
321.95877
322.71951
317.10998
317.977
321.91906
319.98505
320.82937
315.5235
326.79426
329.83595
327.71258
329.05053
313.57766
325.97582
327.71643
328.32633
325.27019
307.75512
317.99673
306.02378
316.10314
303.48066
309.14327
307.33843
301.9242
304.53212
302.88471
299.93426
317.1211
315.70556
318.98028
320.4673
313.09782
314.14299
317.38503
316.24528
338.47817
342.00871
341.49332
337.55455
338.5375
337.84214
340.83544
335.38685
336.44597
340.17292
335.79242
336.7863
334.14255
334.89929
334.51949
333.69379
344.16409
343.44716
343.14042
343.95655
333.80957
332.13137
332.90252
333.12731
342.71095
343.30283
343.6389
342.26356
324.15262
336.04945
335.54909
335.20475
335.73325
322.1443
334.54561
334.52974
335.11134
333.9221
314.82372
325.50246
312.75243
323.6596
309.35388
316.04852
314.05265
307.57288
310.44217
308.68848
304.54443
341.53224
341.02632
340.19832
339.39223
293.49872
293.4985
293.49853
293.51047
293.50561
293.49873
293.53062
293.52127
293.53195
293.52221
293.4991
293.55578
294.10147
293.9612
293.53812
293.53894
293.5262
293.49922
294.50492
299.96014
294.19794
298.7679
293.57411
294.24157
294.00301
293.54035
293.5022
293.54461
293.52254
303.70065
320.72557
322.80456
322.24619
321.25758
301.05401
319.11795
318.41591
317.92988
319.63287
295.01311
301.59263
294.30019
299.29351
293.51252
293.70948
294.49049
293.98834
329.35359
328.37431
327.2074
328.26399
342.88788
342.57076
342.14389
342.48334
325.08034
324.40898
326.24072
323.18676
341.41847
341.06616
340.68755
341.78172
304.73672
322.74367
326.33604
325.04803
321.40394
301.51597
322.69415
317.01292
320.73755
318.95125
293.84634
293.52648
297.19586
295.5101
296.21399
295.04434
300.526
298.42543
293.49805
293.49802
293.49801
293.49801
293.49802
293.49802
293.49807
293.49829
293.49898
293.50003
293.498
293.498
293.498
293.498
293.498
293.498
293.498
293.498
293.49802
293.49806
293.49842
293.498
293.498
293.498
293.498
293.498
293.498
293.498
293.498
293.498
293.498
293.49801
293.49819
293.498
293.498
293.498
293.498
293.498
293.498
293.498
293.498
293.498
293.498
293.498
293.498
293.49807
293.498
293.498
293.498
293.498
293.498
293.498
293.498
293.498
293.498
293.498
293.498
293.498
293.498
293.49802
293.498
293.498
293.498
293.498
293.498
293.498
293.498
293.498
293.498
293.498
293.498
293.498
293.498
293.498
293.49801
293.498
293.498
293.498
293.498
293.498
293.498
293.498
293.498
293.498
293.498
293.498
293.498
293.498