/*--------------------------------*- C++ -*----------------------------------*\
| =========                 |                                                 |
| \\      /  F ield         | OpenFOAM: The Open Source CFD Toolbox           |
|  \\    /   O peration     | Version:  2412                                  |
|   \\  /    A nd           | Website:  www.openfoam.com                      |
|    \\/     M anipulation  |                                                 |
\*---------------------------------------------------------------------------*/
FoamFile
{
    version     2.0;
    format      ascii;
    arch        "LSB;label=32;scalar=64";
    class       volVectorField;
    location    "53";
    object      U;
}
// * * * * * * * * * * * * * * * * * * * * * * * * * * * * * * * * * * * * * //

dimensions      [0 1 -1 0 0 0 0];

internalField   nonuniform List<vector> 
76360
(
(0.12658051 -0.023899408 0.026492362)
(0.13267045 -0.019835822 0.027335487)
(0.34933464 -0.054520775 0.040384657)
(0.15757682 -0.010654569 0.051907779)
(0.12185307 -0.0086173122 0.015722358)
(0.31569613 -0.062518104 0.049439805)
(0.18455892 -0.010973444 0.066617699)
(0.56270904 -0.059262715 0.051024527)
(0.43037481 -0.02892488 0.07378357)
(0.15200247 -0.0043677555 0.039374919)
(0.10722779 -0.0024715331 0.0073326188)
(0.27210339 -0.036415727 0.031873203)
(0.1939025 -0.0065887716 0.051859981)
(0.48997238 -0.083211243 0.068123562)
(0.46399085 -0.048721123 0.1178317)
(0.17876373 -0.0061896487 0.062327711)
(0.75644196 -0.053890116 0.05911082)
(0.67538737 -0.032805988 0.084501976)
(0.42188416 -0.011663634 0.047071955)
(0.14859945 -0.0021833133 0.027349254)
(0.09547341 0.0007996858 0.0026214339)
(0.23118263 -0.016334104 0.017150844)
(0.19132371 -0.0032931517 0.034769196)
(0.40858431 -0.059743776 0.04639154)
(0.46994864 -0.042741897 0.10686855)
(0.19999589 -0.0050215566 0.059426899)
(0.65591156 -0.085879725 0.084371343)
(0.7114783 -0.066736735 0.14476463)
(0.46104791 -0.027310072 0.09800609)
(0.16832687 -0.0035610988 0.049749721)
(0.92579083 -0.045301179 0.065154555)
(0.89051633 -0.030526809 0.093323547)
(0.66164265 -0.01463333 0.045540877)
(0.41749468 -0.0058733663 0.028755569)
(0.14726818 -0.001171607 0.020096985)
(0.085869103 0.0024354783 0.00012114829)
(0.20334335 -0.0037798197 0.0085536275)
(0.18379921 -0.00090431225 0.021194211)
(0.33585394 -0.03404789 0.025797492)
(0.45653442 -0.0304334 0.082423042)
(0.21133067 -0.0034920278 0.048478302)
(0.54298424 -0.069859789 0.060735722)
(0.70837455 -0.069518643 0.13975975)
(0.49788269 -0.031176789 0.11174792)
(0.18907991 -0.0031504383 0.054084217)
(0.80587247 -0.07825972 0.097742339)
(0.93291742 -0.068662605 0.16557872)
(0.7030089 -0.038382128 0.10342031)
(0.44391584 -0.015163563 0.071269299)
(0.16135952 -0.0018971902 0.038576133)
(1.0684995 -0.036030302 0.069611448)
(1.0749215 -0.025866294 0.10038901)
(0.87151864 -0.01471872 0.045809127)
(0.65698798 -0.0079115491 0.024404063)
(0.4162189 -0.0032959277 0.020122883)
(0.1466154 -0.00075564207 0.014872148)
(0.077766852 0.0030016041 -0.001057116)
(0.18335269 0.003916547 0.0036805904)
(0.17413857 0.0008185179 0.011622602)
(0.28835069 -0.014653383 0.013478425)
(0.43689161 -0.018226292 0.058562784)
(0.21470511 -0.0021005639 0.036289346)
(0.43861755 -0.04500421 0.034930729)
(0.67880845 -0.057994899 0.11485443)
(0.51953915 -0.028126592 0.10532979)
(0.20498328 -0.0023789939 0.049873337)
(0.66931506 -0.068937193 0.073831419)
(0.92580823 -0.07855739 0.16504601)
(0.74437935 -0.04953537 0.12796876)
(0.47962328 -0.019048829 0.093582786)
(0.17790293 -0.0017251825 0.044660276)
(0.93478466 -0.065561712 0.10828545)
(1.1250033 -0.061698501 0.1826383)
(0.91427513 -0.040349491 0.10617648)
(0.68148359 -0.021873588 0.067384742)
(0.43329531 -0.0083216106 0.052649252)
(0.15728439 -0.0010992885 0.029126526)
(1.1834394 -0.026905225 0.07282856)
(1.228405 -0.020537159 0.10574993)
(1.0514575 -0.013124838 0.047115303)
(0.86677721 -0.0084159197 0.022872582)
(0.65606976 -0.0044878053 0.016188846)
(0.41559129 -0.0020241553 0.014553515)
(0.1462847 -0.00057757453 0.010759085)
(0.070944357 0.0030161652 -0.0014861721)
(0.16752875 0.0080456145 0.0010249629)
(0.16367613 0.0018663525 0.0054300858)
(0.25660343 -0.00091908995 0.0065455726)
(0.41543969 -0.0077259702 0.039243309)
(0.21263741 -0.00085481227 0.02541246)
(0.36878387 -0.023248631 0.018560947)
(0.64287059 -0.041640935 0.087124713)
(0.52731426 -0.0221087 0.089838573)
(0.21491345 -0.0017020128 0.042152362)
(0.53782271 -0.047744809 0.044037267)
(0.88288105 -0.071533846 0.14026091)
(0.76860661 -0.050204633 0.13081551)
(0.51145765 -0.018989932 0.099662725)
(0.19284378 -0.001346718 0.044033498)
(0.78111257 -0.060762046 0.084954992)
(1.1184051 -0.074688788 0.18612592)
(0.95882167 -0.055208816 0.13516407)
(0.71900655 -0.030225998 0.096762156)
(0.45983686 -0.010603279 0.073272117)
(0.17009672 -0.00097476571 0.034810141)
(1.0398762 -0.050493908 0.11627979)
(1.2856901 -0.050751181 0.19610714)
(1.0956608 -0.036722543 0.11004469)
(0.88913823 -0.023747552 0.064134229)
(0.67061981 -0.012233238 0.047191323)
(0.42745542 -0.0047719861 0.03868799)
(0.1549811 -0.0007145283 0.021251337)
(1.2700037 -0.018139565 0.07504808)
(1.3510299 -0.015150509 0.10965998)
(1.2014019 -0.010706446 0.048538554)
(1.0467106 -0.0077706666 0.023019902)
(0.86611136 -0.004863804 0.014687261)
(0.65557907 -0.0025979264 0.01131137)
(0.41527296 -0.0013817104 0.010405654)
(0.14611363 -0.00049203439 0.0073199784)
(0.065110491 0.0028143517 -0.0015401807)
(0.15462877 0.0099084001 -0.00030656304)
(0.15329799 0.0024067461 0.0017013228)
(0.23311186 0.0078324812 0.002754403)
(0.39355402 0.00029678466 0.025107221)
(0.20705542 0.00013798605 0.016762082)
(0.32292995 -0.0061304327 0.009234463)
(0.60738755 -0.02473368 0.062731193)
(0.52494036 -0.015067789 0.071833749)
(0.21962314 -0.0010660272 0.03356469)
(0.44634287 -0.026766645 0.023868428)
(0.8304538 -0.056314447 0.11008358)
(0.77621241 -0.044274667 0.12043836)
(0.53454379 -0.016847215 0.095107724)
(0.20446768 -0.0010219473 0.039970222)
(0.62820085 -0.043861164 0.052358005)
(1.067313 -0.071654348 0.16179178)
(0.98450136 -0.059493239 0.14342665)
(0.75542853 -0.033123467 0.11222856)
(0.48810376 -0.010917055 0.082909123)
(0.18265846 -0.00074998061 0.035667441)
(0.87406503 -0.048082221 0.093855967)
(1.2817752 -0.063574128 0.20326121)
(1.1435917 -0.051821804 0.14162148)
(0.92567386 -0.034066074 0.094085676)
(0.69617168 -0.017062207 0.071410859)
(0.44672745 -0.0058565326 0.055336496)
(0.1652414 -0.0005773071 0.025849225)
(1.1196242 -0.034430242 0.12200502)
(1.4143077 -0.038179434 0.20627525)
(1.2468716 -0.030266482 0.11407345)
(1.0677864 -0.022084013 0.064266093)
(0.87868011 -0.013592917 0.043289214)
(0.66511527 -0.0068760375 0.033466527)
(0.42429087 -0.0029297268 0.027826393)
(0.15368429 -0.00051496864 0.014507036)
(1.3278547 -0.0097353278 0.076432705)
(1.4429007 -0.0098949156 0.11237054)
(1.3213517 -0.0078984182 0.049745594)
(1.1966977 -0.0064155106 0.023710166)
(1.0461947 -0.0045266983 0.014644415)
(0.86568971 -0.0027495332 0.0099455508)
(0.65532434 -0.0015455926 0.0079040588)
(0.4151119 -0.0010425488 0.007041579)
(0.14602363 -0.00045027666 0.004262067)
(0.05994764 0.0025591746 -0.0014342575)
(0.14375923 0.010584435 -0.00091425387)
(0.1434125 0.0026470007 -0.00040147324)
(0.21503707 0.01292259 0.00080019696)
(0.3722181 0.0058970479 0.015375754)
(0.19941792 0.0008480887 0.010385796)
(0.29010149 0.0059335384 0.0041633517)
(0.57374107 -0.0098444894 0.043748118)
(0.51548214 -0.0082543521 0.054973814)
(0.22017298 -0.00047463524 0.025556769)
(0.38583622 -0.0087967315 0.012036637)
(0.77921894 -0.03786653 0.082002501)
(0.77159574 -0.034580455 0.10356219)
(0.54842359 -0.013515735 0.084668088)
(0.21244624 -0.00071579941 0.034379141)
(0.51790444 -0.025340748 0.02899841)
(1.0019807 -0.059358508 0.12988512)
(0.99079358 -0.055932939 0.13747414)
(0.78405297 -0.032121305 0.11602534)
(0.51341788 -0.010158097 0.084337961)
(0.19358856 -0.00054587052 0.033799987)
(0.70515974 -0.035142154 0.05939653)
(1.2265657 -0.062826378 0.17972551)
(1.1716184 -0.057735512 0.1528827)
(0.96252915 -0.038905616 0.11266189)
(0.72606918 -0.019060892 0.087392332)
(0.46901165 -0.0058898412 0.064686711)
(0.1756852 -0.00041334486 0.027099006)
(0.94555086 -0.032764744 0.10048516)
(1.413664 -0.04863623 0.21654622)
(1.2980431 -0.043397857 0.14780025)
(1.1035197 -0.032183184 0.094091347)
(0.90166925 -0.019591794 0.066352854)
(0.68257306 -0.0093876465 0.052009188)
(0.4389787 -0.0032776069 0.040387)
(0.16234947 -0.00036019391 0.017815706)
(1.1731782 -0.018054026 0.12568526)
(1.5107335 -0.02506944 0.21351785)
(1.3678149 -0.02242873 0.11752901)
(1.2170602 -0.018277409 0.065966279)
(1.0577253 -0.012752919 0.042784139)
(0.87366426 -0.0075822145 0.029699397)
(0.66223425 -0.0038748493 0.023552915)
(0.42256139 -0.0019404893 0.018861081)
(0.1529783 -0.0004137079 0.0084565558)
(1.3568237 -0.0016168551 0.077100173)
(1.5041057 -0.0048004446 0.1140697)
(1.4113142 -0.0049222662 0.050652236)
(1.3167069 -0.004645292 0.024459451)
(1.1962736 -0.0036808166 0.015117166)
(1.0457964 -0.0024904446 0.0097449377)
(0.86546358 -0.0014981979 0.0067669758)
(0.65519686 -0.00095146826 0.0052774873)
(0.41502756 -0.00086574447 0.0040900693)
(0.14598398 -0.00043285572 0.0014003088)
(0.055199473 0.0023240213 -0.0012840743)
(0.13416129 0.010723426 -0.0011591732)
(0.13404468 0.0027277671 -0.0015004001)
(0.20056249 0.015810283 -0.00016490673)
(0.3518832 0.0096502668 0.0089095862)
(0.19068722 0.0013327652 0.0059422267)
(0.26583127 0.013773556 0.0015777158)
(0.54267258 0.0020275688 0.029946298)
(0.50142161 -0.002364585 0.040785145)
(0.21760717 3.1695678e-05 0.018809312)
(0.34294461 0.0048495712 0.0055500616)
(0.73176138 -0.019725264 0.059292804)
(0.75843406 -0.023420668 0.085211206)
(0.55403299 -0.0095986288 0.071921637)
(0.2169962 -0.00040603858 0.028464732)
(0.44385508 -0.0083275174 0.014845349)
(0.93674781 -0.042254172 0.098805759)
(0.98271792 -0.046949414 0.12302238)
(0.80312879 -0.028268551 0.11127042)
(0.5335625 -0.0086898103 0.080233007)
(0.20224278 -0.00035362969 0.030486754)
(0.57978583 -0.019852108 0.033554371)
(1.1523996 -0.053312771 0.14678856)
(1.1777849 -0.056184614 0.1495921)
(0.99250787 -0.039399696 0.12108566)
(0.75542202 -0.019033565 0.095864093)
(0.49117398 -0.0053564477 0.068230776)
(0.18536046 -0.00025901073 0.026351931)
(0.76543605 -0.023177114 0.06485723)
(1.3568153 -0.048534871 0.19394531)
(1.3289807 -0.049123751 0.16116372)
(1.1402298 -0.037389793 0.11325725)
(0.92942666 -0.022552237 0.082919834)
(0.70465421 -0.010235284 0.065524814)
(0.45655082 -0.0030233006 0.048089552)
(0.17130239 -0.00022745447 0.018930763)
(0.99402228 -0.016046767 0.10487095)
(1.5130882 -0.031819202 0.22620953)
(1.4217556 -0.032307611 0.15307006)
(1.2524586 -0.026758238 0.096192169)
(1.0790061 -0.018586493 0.064957563)
(0.88870572 -0.010764974 0.046750121)
(0.67497522 -0.004974955 0.037188879)
(0.43452551 -0.0018618493 0.027579081)
(0.16072881 -0.00024704965 0.01043745)
(1.2001194 -0.0016898685 0.12749629)
(1.5750127 -0.011887573 0.21815746)
(1.4585092 -0.013966041 0.1201534)
(1.3366878 -0.013218639 0.067960412)
(1.2073064 -0.010378504 0.043892394)
(1.0530018 -0.0069487714 0.02877792)
(0.87108009 -0.0040081952 0.020383331)
(0.66068817 -0.0021698392 0.015767098)
(0.42163621 -0.0014218947 0.010956279)
(0.15266479 -0.00037067877 0.0027793434)
(1.3568555 0.0063615947 0.077124124)
(1.5347047 0.00016077208 0.11488949)
(1.4712935 -0.0018958526 0.051250076)
(1.4067246 -0.0026489417 0.025085228)
(1.3163403 -0.0024999147 0.015687447)
(1.1958809 -0.0018976471 0.0099952063)
(1.0455787 -0.0012312548 0.0065065405)
(0.86535098 -0.00076017437 0.0044344915)
(0.65512947 -0.00062870695 0.0030426239)
(0.41499041 -0.00078942531 0.0013425187)
(0.14598398 -0.0004328557 -0.001400306)
(0.05069227 0.0021422152 -0.0011576043)
(0.12530471 0.010677927 -0.0012460088)
(0.12505926 0.0027346176 -0.002032855)
(0.18826302 0.017521777 -0.00064228638)
(0.33251997 0.012163656 0.0046904565)
(0.18138108 0.0016586497 0.0029897203)
(0.24731924 0.018844822 0.00032052527)
(0.51427291 0.011059938 0.020230021)
(0.48456845 0.0024309142 0.029550606)
(0.2128019 0.0004456441 0.013514759)
(0.3118 0.014366518 0.0022488469)
(0.68920852 -0.003845747 0.042328217)
(0.7397551 -0.012452751 0.06816071)
(0.55282559 -0.0056068057 0.059171768)
(0.21856346 -0.00010905234 0.022979828)
(0.39135339 0.005417212 0.0069684591)
(0.8759246 -0.023917934 0.072847229)
(0.96471623 -0.034853567 0.10532186)
(0.81276377 -0.022466622 0.10139169)
(0.54771795 -0.0067120533 0.072904688)
(0.20844761 -0.00016148597 0.026591805)
(0.49433629 -0.0050131238 0.017440786)
(1.0763947 -0.038554876 0.11346234)
(1.1672878 -0.048910406 0.13673234)
(1.0133422 -0.036377981 0.12102228)
(0.78116452 -0.017446022 0.097980581)
(0.51108435 -0.004449536 0.067532389)
(0.19361731 -0.00010894886 0.024459294)
(0.62896188 -0.011384233 0.037228425)
(1.2770675 -0.041078663 0.16050504)
(1.3362361 -0.048468231 0.15964808)
(1.1705093 -0.038532533 0.1232696)
(0.95781959 -0.023119436 0.093746843)
(0.7286156 -0.0098903769 0.074166335)
(0.47500697 -0.0024518709 0.05177174)
(0.17991095 -0.00010277123 0.018695611)
(0.80689554 -0.0092760391 0.068579657)
(1.4559307 -0.031130355 0.20447185)
(1.4555806 -0.036581263 0.16807564)
(1.2892731 -0.031148816 0.11562602)
(1.1047046 -0.021546127 0.080677507)
(0.90812675 -0.012059532 0.059996679)
(0.69160991 -0.0050096667 0.047674346)
(0.44901326 -0.0014270587 0.033182951)
(0.16877478 -0.00013045309 0.011175983)
(1.0186391 0.0012369134 0.10707063)
(1.5796483 -0.014192058 0.23249786)
(1.5146144 -0.019895323 0.15709522)
(1.3720519 -0.019232012 0.098872471)
(1.2276985 -0.015093476 0.066085906)
(1.0666099 -0.0099589017 0.04483852)
(0.88174039 -0.0054064464 0.032683683)
(0.67071949 -0.0024349946 0.025103373)
(0.43208464 -0.0011123784 0.016079355)
(0.16000011 -0.00019807472 0.0034378764)
(1.2003016 0.014528897 0.12753939)
(1.6072175 0.0011860607 0.22042476)
(1.518995 -0.0052875327 0.1218943)
(1.4265251 -0.0074737224 0.06967713)
(1.3271596 -0.0069995436 0.045411369)
(1.2027295 -0.0052805056 0.029281096)
(1.0505742 -0.003341723 0.019387757)
(0.86970479 -0.001886876 0.013414019)
(0.6598664 -0.0012420229 0.0090951567)
(0.42122926 -0.0011976369 0.0035956753)
(0.15266479 -0.00037067873 -0.0027793378)
(1.3279355 0.014367614 0.076486853)
(1.5347242 0.0050278303 0.11490618)
(1.5012891 0.0011155653 0.051544032)
(1.4667438 -0.00055018668 0.025520034)
(1.4063939 -0.0011170004 0.016184774)
(1.3159467 -0.0010628791 0.010365545)
(1.1956644 -0.00075854965 0.0066092007)
(1.0454713 -0.00046324596 0.0041984438)
(0.8652909 -0.00034743542 0.0025268558)
(0.6550996 -0.00048625008 0.00099534466)
(0.41499041 -0.00078942527 -0.0013425158)
(0.14602363 -0.00045027655 -0.0042620644)
(0.046347709 0.0020280235 -0.0011096317)
(0.11685182 0.010639359 -0.0012995415)
(0.11628152 0.0027236328 -0.0023273185)
(0.17720732 0.018680465 -0.00090666748)
(0.3138586 0.013907792 0.0019213538)
(0.17169527 0.0018775262 0.001103415)
(0.2323494 0.022342641 -0.00029444673)
(0.48806894 0.017880302 0.013455535)
(0.46598642 0.006238919 0.021003735)
(0.20636497 0.00077620928 0.0096098899)
(0.28876231 0.020976663 0.00066599683)
(0.65167923 0.0093181365 0.030125709)
(0.71779031 -0.0025211588 0.05351365)
(0.54629848 -0.0018513979 0.04766455)
(0.21765397 0.00016392038 0.018338703)
(0.35346981 0.015560679 0.0029398631)
(0.82156186 -0.0067036927 0.05303146)
(0.94054288 -0.021643334 0.087731487)
(0.81407964 -0.015632321 0.089224112)
(0.55594595 -0.0044433581 0.064193346)
(0.21228782 2.7698008e-05 0.02273025)
(0.43352867 0.007615903 0.008328489)
(1.0044823 -0.02166186 0.08483724)
(1.1451367 -0.037768548 0.1195633)
(1.0245692 -0.030574059 0.11498707)
(0.80141675 -0.014590949 0.095261475)
(0.52747833 -0.0032585803 0.064009325)
(0.20016262 3.8378708e-05 0.022024711)
(0.53481206 0.00051540578 0.019607738)
(1.1934685 -0.028805054 0.12563401)
(1.3248375 -0.042595251 0.14777872)
(1.191928 -0.036244259 0.125338)
(0.9841191 -0.02176208 0.09936909)
(0.75214889 -0.0086705288 0.078488102)
(0.49266315 -0.0016628413 0.052412869)
(0.18758618 2.5561427e-05 0.017653025)
(0.66325431 -0.0010262098 0.039811708)
(1.3729474 -0.024982047 0.17084813)
(1.4645336 -0.035822317 0.16789887)
(1.3199049 -0.032042558 0.1262152)
(1.1311873 -0.022115776 0.091322416)
(0.9298789 -0.011813243 0.069660851)
(0.7105705 -0.0042706464 0.054898584)
(0.46470069 -0.00081601425 0.036147647)
(0.1766818 -2.3302751e-05 0.011136573)
(0.82827079 0.005501561 0.070493216)
(1.5227858 -0.012133337 0.21141318)
(1.5509241 -0.021935792 0.17333932)
(1.4092082 -0.022044862 0.11865598)
(1.2521425 -0.01729973 0.081325062)
(1.0839898 -0.011128596 0.057070918)
(0.89589335 -0.0055539101 0.042725012)
(0.68398321 -0.0019759201 0.03250856)
(0.44477437 -0.00057850492 0.01945926)
(0.1676224 -8.8078264e-05 0.0036941285)
(1.0190334 0.018474472 0.10712361)
(1.613189 0.0036423644 0.23560137)
(1.5766295 -0.0069320439 0.15977652)
(1.4620166 -0.010534206 0.10126803)
(1.3471664 -0.0099611228 0.068070185)
(1.2156442 -0.0074554629 0.045212151)
(1.0600768 -0.0044933727 0.030812298)
(0.87788811 -0.002186326 0.021731037)
(0.66841273 -0.0010441643 0.014541278)
(0.43100055 -0.00078653711 0.0052851264)
(0.16000011 -0.00019807459 -0.0034378689)
(1.1736771 0.030518333 0.12578735)
(1.6073853 0.014064887 0.22044286)
(1.5493011 0.0033796343 0.12274902)
(1.4864963 -0.0014131267 0.070886313)
(1.417156 -0.0030154719 0.046787062)
(1.3226502 -0.002878506 0.030234877)
(1.2003706 -0.0020083704 0.019532204)
(1.0492885 -0.001127372 0.012573173)
(0.86897442 -0.00069754443 0.0076549322)
(0.65950602 -0.00083230498 0.0029754606)
(0.42122926 -0.0011976369 -0.0035956711)
(0.1529783 -0.00041370751 -0.0084565507)
(1.2701147 0.022515914 0.075110912)
(1.5041631 0.0098426534 0.11410758)
(1.5013003 0.0040730897 0.051536353)
(1.4967608 0.0015672605 0.025740047)
(1.4664342 0.00036699895 0.016538382)
(1.4059978 -7.2088633e-05 0.010710752)
(1.3157287 -0.0001230234 0.0068286759)
(1.1955587 -4.5632515e-05 0.0042252038)
(1.045414 -2.3520596e-05 0.0023670077)
(0.86526414 -0.0001621975 0.00082198451)
(0.6550996 -0.00048625 -0.00099534251)
(0.41502756 -0.00086574427 -0.0040900668)
(0.14611363 -0.0004920343 -0.0073199763)
(0.042235892 0.0019851826 -0.0012117974)
(0.1086375 0.010707284 -0.0014178677)
(0.10757205 0.0027313534 -0.0026891375)
(0.16683197 0.019663871 -0.0011158893)
(0.29556903 0.015225606 -2.736856e-05)
(0.16162149 0.0020270341 -0.00011432156)
(0.21946686 0.02505408 -0.00063913503)
(0.46341223 0.023146975 0.0086614797)
(0.44620887 0.0092597952 0.014654548)
(0.19863819 0.0010313483 0.0069159025)
(0.27086357 0.025886312 -8.2362351e-05)
(0.61836683 0.020084405 0.021442985)
(0.69387703 0.0061240777 0.04147363)
(0.53565663 0.0015357619 0.037944687)
(0.21469933 0.00040715704 0.014732532)
(0.32592809 0.022992451 0.0010191704)
(0.77424502 0.0084819372 0.03858074)
(0.91305137 -0.008613921 0.071837377)
(0.80860173 -0.0084795272 0.076677038)
(0.55878427 -0.0020656537 0.055405133)
(0.2139749 0.0002107402 0.019322717)
(0.38971658 0.017423822 0.0036371398)
(0.93974142 -0.004927782 0.062549365)
(1.1157737 -0.024585903 0.1017678)
(1.0269494 -0.022867583 0.10549925)
(0.81538883 -0.010810447 0.089370363)
(0.53978111 -0.0018666524 0.058910096)
(0.2049326 0.00018331255 0.019507148)
(0.46754409 0.011095407 0.0095089691)
(1.1132458 -0.014129412 0.095000967)
(1.3000877 -0.032849938 0.13083118)
(1.2036991 -0.031030901 0.12146036)
(1.0061993 -0.01874667 0.10050807)
(0.77341574 -0.0067541886 0.079245636)
(0.50835246 -0.0007168967 0.050932214)
(0.19400832 0.00015354999 0.016203904)
(0.56336451 0.0074793073 0.0211815)
(1.2844428 -0.015016728 0.13499304)
(1.4533262 -0.03076098 0.15675265)
(1.34185 -0.029924744 0.12912211)
(1.1562855 -0.02073525 0.09761921)
(0.95226051 -0.010374868 0.07605766)
(0.73022788 -0.0029639252 0.059172358)
(0.48024196 -5.6505298e-05 0.037075448)
(0.18391491 9.2425824e-05 0.010620493)
(0.6812755 0.010202516 0.041182896)
(1.4382246 -0.0067390986 0.1777692)
(1.5616698 -0.020371556 0.17416902)
(1.4403831 -0.022056908 0.12960124)
(1.2771961 -0.017330592 0.091441626)
(1.103351 -0.01066951 0.066050494)
(0.91245707 -0.0046387466 0.050400549)
(0.69954768 -0.00099201105 0.037816307)
(0.45875501 5.0972295e-05 0.021341872)
(0.17518995 1.0971554e-05 0.003696562)
(0.82896205 0.020273998 0.070571532)
(1.5568024 0.0074465904 0.21488177)
(1.6148191 -0.0063128008 0.17684782)
(1.4996315 -0.011320751 0.12141391)
(1.370999 -0.01089796 0.08325697)
(1.2319021 -0.007993361 0.056953868)
(1.0725269 -0.0044082386 0.039986039)
(0.88888313 -0.0016092293 0.028735017)
(0.67976003 -0.00030830629 0.018940564)
(0.44286877 -0.00020839106 0.0064130417)
(0.1676224 -8.807842e-05 -0.0036941196)
(0.99516315 0.035133326 0.10501179)
(1.6136481 0.021276373 0.23562641)
(1.6078356 0.0061235071 0.16109453)
(1.5221977 -0.0012785033 0.10298682)
(1.4370705 -0.0038348722 0.069988648)
(1.3352912 -0.0037483125 0.046454461)
(1.2093364 -0.002462469 0.030773746)
(1.0564809 -0.0010965109 0.020210841)
(0.87580731 -0.00036917569 0.012467966)
(0.66739372 -0.00042778844 0.0047656668)
(0.43100055 -0.00078653732 -0.0052851185)
(0.16072881 -0.000247049 -0.010437443)
(1.1203722 0.046130926 0.12213432)
(1.575508 0.026694249 0.21820177)
(1.5494408 0.011900569 0.12271961)
(1.5165631 0.0047117064 0.071502748)
(1.4772297 0.0012727539 0.047781179)
(1.4126753 -8.9044376e-06 0.031170239)
(1.3203161 -0.00017188392 0.020087077)
(1.1991264 5.2177607e-05 0.012552903)
(1.0486064 0.00014411107 0.0071026364)
(0.86865424 -0.00016317661 0.0024913665)
(0.65950602 -0.00083230489 -0.0029754576)
(0.42163621 -0.0014218943 -0.010956276)
(0.15368429 -0.00051496831 -0.014507032)
(1.1835743 0.030884522 0.072895558)
(1.4429929 0.014655392 0.11241531)
(1.4713297 0.0069462493 0.051230965)
(1.4967749 0.0036426604 0.025738123)
(1.4964613 0.0018741579 0.016719733)
(1.4660358 0.00099911565 0.010964363)
(1.4057775 0.00062247079 0.0070508663)
(1.315623 0.00047651377 0.0043458861)
(1.1955024 0.00037019164 0.002365368)
(1.0453885 0.00017659429 0.00076584164)
(0.86526414 -0.00016219739 -0.00082198258)
(0.65512947 -0.00062870663 -0.003042622)
(0.4151119 -0.0010425487 -0.0070415771)
(0.1462847 -0.00057757445 -0.010759083)
(0.038712689 0.0020048479 -0.0015915507)
(0.10072811 0.010908604 -0.0017228034)
(0.098918611 0.0027766033 -0.0035137453)
(0.15683422 0.020695624 -0.0013855208)
(0.27737104 0.016349933 -0.0017314437)
(0.15102925 0.0021302043 -0.0010865559)
(0.20779715 0.027488375 -0.00091906077)
(0.43968392 0.027424433 0.005070383)
(0.42537517 0.011692416 0.0099213078)
(0.18972988 0.0012125495 0.0052032223)
(0.25610589 0.029958552 -0.00047857818)
(0.58818909 0.029024737 0.015166103)
(0.66863293 0.01354125 0.031809279)
(0.52169117 0.0045156159 0.03014446)
(0.20998979 0.00061156792 0.012231499)
(0.30512356 0.028805614 0.00013407601)
(0.73320284 0.021650125 0.028221767)
(0.88396413 0.0036093628 0.058183134)
(0.79770304 -0.0014446146 0.064883448)
(0.5568865 0.00030081023 0.047387998)
(0.21374559 0.00038404557 0.016650725)
(0.358189 0.024975451 0.0014062372)
(0.88343833 0.010563936 0.046079749)
(1.0827652 -0.010718443 0.085218073)
(1.0219457 -0.014068202 0.094478339)
(0.82311222 -0.0064367738 0.081778101)
(0.54788695 -0.00034558025 0.053256341)
(0.20799245 0.00032681087 0.017255991)
(0.41907976 0.019733867 0.0042796686)
(1.0403829 0.001011306 0.070757001)
(1.2669184 -0.020694135 0.11274479)
(1.2063036 -0.02356225 0.11385062)
(1.0227679 -0.014377103 0.098212254)
(0.79117809 -0.0042914366 0.077361463)
(0.5213947 0.00034176918 0.048169516)
(0.19906552 0.00028091065 0.014666162)
(0.49180423 0.015351343 0.010407134)
(1.1985781 -0.0028919942 0.1029712)
(1.4273707 -0.022296838 0.1399254)
(1.3541203 -0.025131839 0.12615155)
(1.1780684 -0.017640953 0.10012122)
(0.97366389 -0.0079644498 0.079523933)
(0.7491616 -0.0012322244 0.060970327)
(0.49462095 0.00081106745 0.036554017)
(0.19015571 0.00021038221 0.0098571027)
(0.57870544 0.015050274 0.022057117)
(1.3470146 0.0011310272 0.14135982)
(1.5512385 -0.015613083 0.16357817)
(1.4630206 -0.019622893 0.13291843)
(1.3011028 -0.015565541 0.097469557)
(1.1234899 -0.0088970759 0.072310668)
(0.93029754 -0.0028810587 0.055878904)
(0.71617005 0.0004044647 0.041187531)
(0.47288562 0.00079318296 0.022053266)
(0.18219866 0.00012047529 0.0035416471)
(0.68233675 0.021367167 0.041285153)
(1.4718811 0.012373305 0.18128341)
(1.6271195 -0.0035249142 0.17835773)
(1.5314568 -0.010072072 0.1326399)
(1.3952547 -0.010016435 0.093071528)
(1.249711 -0.0069962414 0.065286208)
(1.086958 -0.003167386 0.046988072)
(0.90214281 -0.00027385522 0.034246355)
(0.69331949 0.000806995 0.022167333)
(0.45605032 0.00042774381 0.0070557306)
(0.17518995 1.0970846e-05 -0.0036965517)
(0.80893258 0.034232064 0.068800354)
(1.557726 0.026858326 0.21494982)
(1.6472027 0.0095691739 0.17858064)
(1.5602989 0.00019056842 0.12341393)
(1.4607139 -0.0031840782 0.085312986)
(1.3510519 -0.0032776394 0.058139551)
(1.2209213 -0.0018046432 0.039543777)
(1.0660109 -0.00018870222 0.026558626)
(0.88502405 0.000629506 0.016600226)
(0.67787488 0.00043281933 0.0062242301)
(0.44286877 -0.00020839161 -0.0064130301)
(0.16877478 -0.00013045276 -0.011175975)
(0.94736243 0.050626356 0.10069272)
(1.5810201 0.038381694 0.23257194)
(1.6082522 0.018970294 0.16105149)
(1.5525156 0.0081084119 0.10386771)
(1.4972267 0.0027958809 0.071413408)
(1.4252818 0.00072438441 0.047774585)
(1.3290849 0.00040411557 0.031490492)
(1.205872 0.00071960228 0.020010001)
(1.0545407 0.00086692826 0.011486617)
(0.87488958 0.00045026277 0.0040674768)
(0.66739372 -0.0004277885 -0.0047656605)
(0.43208464 -0.0011123781 -0.016079348)
(0.16234947 -0.00036019327 -0.017815701)
(1.0408363 0.061067579 0.11642987)
(1.5115405 0.039028559 0.21357946)
(1.5194157 0.020163261 0.12181934)
(1.5167086 0.010715253 0.071497552)
(1.5073468 0.0056328164 0.048294944)
(1.4727599 0.0031004153 0.031870764)
(1.4103465 0.0019966546 0.020686797)
(1.3190888 0.0015645089 0.012852136)
(1.1984675 0.0012574272 0.0070427629)
(1.0483076 0.0007235699 0.0022997447)
(0.86865424 -0.00016317652 -0.0024913642)
(0.6598664 -0.0012420223 -0.009095154)
(0.42256139 -0.001940489 -0.018861078)
(0.1549811 -0.00071452798 -0.021251334)
(1.0686536 0.03949363 0.069681536)
(1.351154 0.019502056 0.10970928)
(1.4113777 0.0096979282 0.050627064)
(1.4667858 0.0056223302 0.025513956)
(1.4964756 0.0033409666 0.016718762)
(1.4960616 0.0020855737 0.011096269)
(1.4658138 0.0014234717 0.0072201931)
(1.4056712 0.0010714715 0.0044795126)
(1.3155669 0.00083114358 0.0024236713)
(1.1954775 0.00056157281 0.00076243871)
(1.0453885 0.00017659437 -0.00076583981)
(0.8652909 -0.00034743504 -0.0025268542)
(0.65519686 -0.00095146793 -0.005277486)
(0.41527296 -0.0013817103 -0.010405652)
(0.1466154 -0.00075564195 -0.014872146)
(0.036734005 0.0020458899 -0.00249235)
(0.093609581 0.01117566 -0.0024277345)
(0.090612123 0.0028484125 -0.0054657249)
(0.14718743 0.021880167 -0.0018520636)
(0.25917791 0.017400113 -0.0038895661)
(0.13972466 0.0021856318 -0.0023767697)
(0.1968389 0.029977554 -0.0012733969)
(0.41637728 0.031146878 0.0019870974)
(0.40335847 0.013684861 0.0061191622)
(0.17952883 0.0013046585 0.0042015137)
(0.24328362 0.033788094 -0.00078540346)
(0.56013938 0.036740272 0.010372212)
(0.6422255 0.01992827 0.02404965)
(0.50480924 0.0070856373 0.024138089)
(0.20365156 0.00075985944 0.01085827)
(0.28856191 0.033857662 -0.0003050471)
(0.69713015 0.033209182 0.020718719)
(0.85408155 0.014836683 0.04674458)
(0.78236768 0.0052363452 0.054419352)
(0.55079359 0.0025686978 0.04066517)
(0.21180249 0.00053909224 0.014921866)
(0.33484732 0.031165914 0.00039975159)
(0.83507457 0.024623775 0.034193147)
(1.0483879 0.003057705 0.070661796)
(1.0110227 -0.0047602369 0.083214001)
(0.82499687 -0.0017271473 0.073636076)
(0.55193194 0.0012484138 0.047841649)
(0.20947552 0.00046727785 0.015543094)
(0.3844414 0.026748368 0.0017981749)
(0.9768223 0.015589176 0.052635174)
(1.2295033 -0.0073140973 0.09561237)
(1.2011508 -0.014526296 0.10428095)
(1.0334121 -0.0089763368 0.093577854)
(0.80476793 -0.0014127988 0.073774966)
(0.53146295 0.0014848729 0.044862265)
(0.20277015 0.00040924942 0.013296768)
(0.44026718 0.022162599 0.0048061748)
(1.1200265 0.0099758028 0.077322089)
(1.3919084 -0.011489588 0.12156365)
(1.3569765 -0.018127227 0.11939325)
(1.1951197 -0.013070352 0.099598926)
(0.99275379 -0.0047564054 0.080560969)
(0.76630759 0.00081920658 0.060874957)
(0.50720863 0.0017531941 0.035136261)
(0.19527692 0.00032907769 0.0090334978)
(0.5051882 0.019795062 0.010949818)
(1.2579066 0.010561036 0.10849613)
(1.5250565 -0.0081964634 0.14685756)
(1.4759994 -0.014954344 0.1303408)
(1.3221931 -0.012210385 0.1000455)
(1.1432186 -0.0060328557 0.076218711)
(0.9482948 -0.00045854409 0.05940007)
(0.73269842 0.0021111064 0.042921342)
(0.48625405 0.0016244045 0.02192298)
(0.18833355 0.00023335298 0.0033039181)
(0.58016517 0.022404314 0.022179311)
(1.3798091 0.018257973 0.14466044)
(1.6176698 0.0012650684 0.16815814)
(1.5548999 -0.0070141851 0.13621411)
(1.4184381 -0.0076100368 0.098779723)
(1.2681196 -0.0047160802 0.070948949)
(1.1025454 -0.00095253329 0.05212336)
(0.9168196 0.0016997993 0.038328722)
(0.70806442 0.0022464637 0.024292558)
(0.46950185 0.0011594303 0.0073163392)
(0.18219866 0.00012047423 -0.0035416358)
(0.66638265 0.031575594 0.0401064)
(1.4734458 0.03132956 0.18141566)
(1.6606291 0.013758071 0.18044096)
(1.5927924 0.0028890383 0.13483795)
(1.4846656 -0.0011716076 0.095016497)
(1.3680605 -0.0014936083 0.066167427)
(1.2341044 -3.873745e-05 0.046012224)
(1.077411 0.0015627093 0.031544752)
(0.89637416 0.0022060262 0.019915218)
(0.69051264 0.0016052907 0.0073058588)
(0.45605032 0.00042774296 -0.0070557151)
(0.1766818 -2.3303105e-05 -0.011136563)
(0.76872094 0.046514184 0.065198703)
(1.5255474 0.045456239 0.21161442)
(1.6480532 0.025202849 0.17854359)
(1.5910759 0.011896399 0.12443908)
(1.520954 0.0051955445 0.0868967)
(1.4409288 0.0024444747 0.059582663)
(1.3403304 0.0019009706 0.040212137)
(1.2146933 0.0021829323 0.026046333)
(1.0624274 0.002267272 0.015210927)