/*--------------------------------*- C++ -*----------------------------------*\
| =========                 |                                                 |
| \\      /  F ield         | OpenFOAM: The Open Source CFD Toolbox           |
|  \\    /   O peration     | Version:  2412                                  |
|   \\  /    A nd           | Website:  www.openfoam.com                      |
|    \\/     M anipulation  |                                                 |
\*---------------------------------------------------------------------------*/
FoamFile
{
    version     2.0;
    format      ascii;
    arch        "LSB;label=32;scalar=64";
    class       volScalarField;
    location    "200";
    object      epsilon;
}
// * * * * * * * * * * * * * * * * * * * * * * * * * * * * * * * * * * * * * //

dimensions      [0 2 -3 0 0 0 0];

internalField   nonuniform List<scalar> 
12225
(
168089
190207
140850
93576.6
70813.7
58459.9
50272.4
44441.1
40259.8
37213.6
34946.2
33243.1
31979.2
31073.8
30495.1
30214.1
30294.3
28954.6
26543.5
42156.3
36116.4
26269.1
20027.8
16328.1
13927.8
12246.1
11031.9
10138.7
9467.13
8954.02
8558.96
8258.63
8030.06
7867.17
7747.99
7743.47
2756.87
8150.5
8708.35
7908.13
6749.55
5895.19
5237.27
4723.94
4318.59
3996.76
3738.91
3530.95
3360.96
3222.67
3103.15
3013.13
2896.77
2900.8
121.72
1581.14
2154.81
2230.66
2162.43
2050.37
1943.72
1856.33
1782.37
1717.27
1658.61
1606.74
1558.61
1516.02
1471.15
1438.28
1382.31
1359.82
41.6246
283.613
563.925
683.526
719.452
717.003
704.947
691.896
682.172
675.683
670.383
667
662.861
659.729
653.458
648.972
633.664
631.748
5.50072
58.8062
132.463
213.482
263.62
286.992
295.184
294.863
292.791
289.393
286.227
284.131
282.126
281.157
279.567
278.663
273.931
275.357
2.81089
22.9913
37.8977
66.0918
92.9555
113.879
128.432
137.13
141.732
143.952
143.957
143.515
142.491
141.294
139.491
138.383
135.019
135.371
10.8458
16.4091
19.9172
27.9312
37.639
47.3712
56.0899
63.3094
68.793
72.9211
75.684
77.5028
78.5266
79.0108
78.8869
78.7382
77.5072
77.7926
13.9656
14.9647
15.961
18.3072
21.5729
25.3507
29.203
32.8895
36.1512
39.0128
41.3429
43.2904
44.7304
45.9317
46.6483
47.3071
47.4143
47.9417
14.67
14.8209
15.0722
15.7304
16.761
18.1555
19.7168
21.3623
22.939
24.4603
25.7941
27.0498
28.0479
29.0211
29.6717
30.4081
30.7171
31.3059
14.769
14.7606
14.8162
14.9801
15.2637
15.7294
16.3051
16.9773
17.6616
18.3796
19.0369
19.7094
20.2642
20.8546
21.2677
21.7779
22.0174
22.5076
14.7803
14.6995
14.6954
14.7274
14.7925
14.9374
15.1393
15.4062
15.6931
16.0212
16.3319
16.6732
16.9619
17.2883
17.5231
17.8272
17.9793
18.2851
14.7815
14.6614
14.6028
14.5746
14.5751
14.5958
14.6335
14.7112
14.8023
14.9206
15.0366
15.1776
15.2991
15.4474
15.5558
15.7035
15.7798
15.9384
14.7759
14.6367
14.5383
14.4705
14.4219
14.3878
14.3648
14.3542
14.3555
14.3617
14.3744
14.3983
14.4187
14.4525
14.475
14.5122
14.5295
14.5736
14.771
14.6184
14.4959
14.3998
14.3205
14.2536
14.1958
14.146
14.1012
14.0624
14.0251
13.9945
13.9629
13.9389
13.91
13.8918
13.8613
13.8507
14.7678
14.6062
14.4687
14.354
14.2549
14.1672
14.0877
14.0152
13.9469
13.8834
13.8219
13.7648
13.7081
13.6563
13.603
13.5562
13.5044
13.4634
14.7661
14.5992
14.453
14.3268
14.2155
14.1149
14.0222
13.9359
13.854
13.7763
13.7012
13.6296
13.5597
13.4934
13.4278
13.3666
13.3044
13.2487
14.7654
14.5965
14.4463
14.3144
14.1967
14.0892
13.9894
13.8956
13.8064
13.7211
13.639
13.5599
13.4836
13.41
13.3389
13.2706
13.2045
13.1412
14.7661
14.5982
14.4487
14.3171
14.1991
14.091
13.9903
13.8953
13.8049
13.7182
13.635
13.5546
13.4773
13.4027
13.3312
13.2621
13.1963
13.1323
14.7683
14.6057
14.4634
14.3401
14.2306
14.1304
14.038
13.9512
13.8696
13.7916
13.7179
13.6471
13.5807
13.5165
13.4573
13.3992
13.3473
13.2941
14.7723
14.6198
14.4927
14.3882
14.2983
14.2194
14.1523
14.0927
14.044
14.0009
13.9677
13.9386
13.9186
13.9011
13.892
13.8833
13.8832
13.8767
14.7763
14.64
14.5597
14.5081
14.4812
14.4856
14.5202
14.5831
14.6867
14.8025
14.9478
15.091
15.2592
15.4108
15.5891
15.734
15.9173
16.0423
14.7294
14.642
14.8604
14.9787
15.2326
15.6385
16.223
16.8786
17.6179
18.3459
19.1139
19.8131
20.5412
21.1575
21.8195
22.3293
22.9275
23.3197
14.5228
14.3967
16.2182
17.185
19.2977
21.9311
24.8584
27.7493
30.578
33.1038
35.4713
37.4394
39.2977
40.7164
42.1462
43.0955
44.2191
44.7795
11.9557
14.3458
24.8828
32.2435
44.3338
56.2285
66.8796
75.6307
82.5964
87.7465
91.5881
94.2191
96.1085
97.2367
98.1072
98.4588
98.8951
98.7118
6.97814
33.82
78.5564
138.703
187.01
218.375
236.532
245.348
248.509
247.995
247.075
245.261
243.505
242.325
241.63
241.674
242.479
242.39
36.6894
263.413
580.589
750.691
815.607
823.803
813.933
799.081
783.919
772.18
765.399
760.721
759.567
759.885
761.345
763.766
768.236
769.544
80.1462
2601.22
3664.46
3827.59
3682.41
3447.55
3216.96
3039.31
2890.94
2764.29
2655.35
2558
2471.89
2393.65
2324.21
2259.45
2203.56
2147.18
6743.6
20875.7
21815.4
19356.8
15852.5
13425
11693.8
10376.6
9330.74
8487.82
7804.48
7244.66
6781.84
6394.25
6066.88
5786.44
5545.12
5331.41
65727.7
118699
105716
79390.7
61550.7
51105.3
44100.9
38854.5
34783.8
31583.5
29028.2
26952.1
25239.9
23807
22592
21550.9
20643.4
19862.2
0.969811
0.538305
0.659742
0.82371
1.02715
1.2622
1.51798
1.78248
2.04435
2.29416
2.52535
2.73417
2.9197
3.08383
3.23127
3.37041
3.51567
3.69358
3.95643
4.33142
4.78337
5.2949
5.85827
6.47096
7.13352
7.84841
8.61943
9.45142
10.3501
11.3218
12.3739
13.5143
14.7519
16.0963
17.5583
19.1497
20.8827
22.7705
24.8275
27.0691
29.5125
32.1762
35.0803
38.2464
41.6978
45.4596
49.5589
54.0244
58.8868
64.1785
69.9335
76.187
82.9756
90.3355
98.304
106.919
116.224
126.268
137.098
148.76
161.299
174.76
189.188
204.626
221.118
238.703
257.419
277.3
298.38
320.684
344.239
369.061
395.162
422.534
451.17
481.059
512.182
544.512
578.019
612.656
648.375
685.109
722.796
761.356
800.705
840.743
881.368
922.459
963.901
1005.58
1047.39
1089.19
1130.83
1172.16
1213.03
1253.29
1292.79
1331.38
1368.89
1405.19
1440.11
1473.51
1505.23
1535.14
1563.06
1588.88
1612.43
1633.59
1652.13
1667.93
1680.88
1691.35
1698.91
1703.5
1706.1
1705.91
1702.98
1697.4
1689.11
1678.24
1664.8
1648.86
1630.47
1609.72
1586.7
1561.53
1534.31
1505.15
1474.19
1441.54
1407.36
1371.76
1334.83
1296.75
1257.81
1218.15
1177.91
1137.26
1096.36
1055.35
1014.39
973.601
933.14
893.141
853.737
815.052
777.213
740.345
704.586
670.092
637.21
610.631
617.81
637.588
658.402
679.279
700.155
721.033
741.909
762.761
783.568
804.304
824.937
845.434
865.769
885.912
905.84
925.525
944.938
964.039
982.781
1001.11
1018.91
1035.91
1051.74
1065.53
1076.73
1079.76
1080.55
1015.47
1.27526
0.913933
0.778564
0.757729
0.801759
0.885888
0.994761
1.11852
1.25005
1.38413
1.51739
1.64767
1.77415
1.89748
2.0199
2.14548
2.28049
2.43379
2.61578
2.83185
3.07907
3.35369
3.65315
3.97634
4.32328
4.69493
5.09283
5.51907
5.97607
6.46664
6.9938
7.56096
8.17173
8.83016
9.54052
10.3075
11.1359
12.0309
12.9978
14.0428
15.1721
16.3925
17.7113
19.1362
20.6754
22.3376
24.1319
26.0679
28.1554
30.4049
32.8265
35.4309
38.228
41.2279
44.4395
47.8726
51.5386
55.4511
59.6206
64.0579
68.7719
73.7725
79.0673
84.6646
90.5701
96.7906
103.329
110.191
117.377
124.89
132.729
140.893
149.375
158.166
167.254
176.631
186.285
196.214
206.395
216.806
227.425
238.233
249.209
260.33
271.57
282.905
294.307
305.749
317.205
328.655
340.068
351.411
362.651
373.761
384.71
395.47
406.013
416.309
426.331
436.049
445.438
454.465
463.106
471.328
479.112
486.428
493.262
499.559
505.314
510.593
515.608
520.31
524.401
527.926
530.97
533.416
535.274
536.555
537.255
537.317
536.816
535.724
534.049
531.792
528.967
525.571
521.641
517.173
512.179
506.678
500.689
494.229
487.296
479.93
472.198
464.123
455.729
447.047
438.109
428.945
419.59
410.074
400.435
390.708
380.927
371.13
361.354
351.642
342.044
332.642
323.683
316.614
316.836
320.611
325.308
330.124
334.938
339.723
344.474
349.19
353.869
358.507
363.104
367.656
372.167
376.635
381.063
385.452
389.804
394.117
398.388
402.619
406.803
410.902
414.862
418.553
421.962
424.4
427.422
424.498
1.93636
1.30861
1.02111
0.899366
0.868264
0.891104
0.948154
1.02763
1.12213
1.2269
1.33878
1.45586
1.57723
1.70294
1.83395
1.97207
2.11993
2.28069
2.45743
2.65209
2.86508
3.09618
3.34517
3.61221
3.89784
4.20308
4.52919
4.87779
5.25068
5.6499
6.07765
6.53631
7.02839
7.55656
8.12363
8.73252
9.3863
10.0882
10.8417
11.6508
12.5192
13.4508
14.4496
15.5199
16.6661
17.8929
19.2046
20.606
22.1017
23.6963
25.3944
27.2005
29.119
31.1543
33.3101
35.5905
37.9993
40.5404
43.2169
46.032
48.9883
52.0883
55.3338
58.7267
62.2681
65.9591
69.8002
73.7919
77.9337
82.2256
86.6662
91.2545
95.9881
100.865
105.885
111.041
116.326
121.736
127.265
132.906
138.651
144.495
150.43
156.448
162.542
168.703
174.923
181.193
187.505
193.851
200.22
206.599
212.977
219.344
225.689
232
238.266
244.474
250.613
256.67
262.633
268.487
274.219
279.811
285.253
290.523
295.638
300.61
305.407
310.035
314.514
318.807
322.861
326.679
330.263
333.583
336.634
339.411
341.902
344.087
345.986
347.576
348.854
349.82
350.48
350.774
350.787
350.47
349.819
348.842
347.541
345.922
343.981
341.73
339.187
336.367
333.277
329.929
326.335
322.509
318.466
314.221
309.792
305.198
300.457
295.59
290.621
285.576
280.492
275.437
270.592
266.605
265.052
265.065
265.636
266.394
267.168
267.921
268.642
269.338
270.007
270.648
271.268
271.874
272.472
273.072
273.68
274.306
274.957
275.644
276.368
277.138
277.975
278.882
279.859
280.902
282.074
283.337
285.177
287.816
2.82351
1.81532
1.35417
1.14078
1.05584
1.04451
1.07848
1.14207
1.22619
1.32537
1.43618
1.55649
1.68509
1.82162
1.96636
2.12009
2.28398
2.45944
2.64787
2.85039
3.0678
3.30066
3.54954
3.81515
4.09843
4.40058
4.72281
5.06656
5.43348
5.82537
6.24413
6.69179
7.17046
7.68235
8.22972
8.81487
9.44006
10.1074
10.8185
11.5767
12.3852
13.2468
14.1644
15.1409
16.1792
17.2825
18.4537
19.6954
21.0102
22.4009
23.87
25.4204
27.0553
28.7785
30.5915
32.4967
34.4962
36.5925
38.7875
41.0834
43.4821
45.9856
48.5955
51.3136
54.1414
57.0803
60.1316
63.2964
66.5757
69.9702
73.4802
77.1059
80.8471
84.7032
88.6737
92.7567
96.9506
101.254
105.663
110.177
114.791
119.502
124.306
129.199
134.178
139.236
144.369
149.571
154.836
160.159
165.533
170.948
176.396
181.871
187.363
192.865
198.366
203.858
209.33
214.774
220.179
225.534
230.83
236.054
241.202
246.276
251.257
256.137
260.904
265.552
270.076
274.455
278.671
282.715
286.579
290.249
293.716
296.971
300.003
302.802
305.366
307.682
309.745
311.545
313.072
314.316
315.301
316.013
316.419
316.539
316.368
315.921
315.188
314.173
312.884
311.332
309.522
307.461
305.159
302.624
299.868
296.901
293.739
290.393
286.881
283.217
279.422
275.519
271.538
267.537
263.644
260.198
257.795
256.2
254.99
253.931
252.905
251.873
250.819
249.729
248.609
247.476
246.342
245.215
244.104
243.02
241.972
240.969
240.024
239.146
238.338
237.608
236.971
236.442
236.046
235.8
235.796
236.056
236.895
239.129
3.72791
2.33667
1.71084
1.4178
1.29239
1.26015
1.28345
1.34263
1.42656
1.5288
1.64547
1.77428
1.91388
2.0636
2.22323
2.39304
2.57359
2.76563
2.97
3.18752
3.419
3.6652
3.92694
4.2051
4.50066
4.81472
5.14865
5.50391
5.88202
6.28463
6.71344
7.17023
7.65682
8.17513
8.72707
9.31466
9.93997
10.6052
11.3131
12.0658
12.8652
13.7137
14.6136
15.5674
16.5777
17.6474
18.7796
19.9757
21.2379
22.5681
23.968
25.4388
26.9792
28.5975
30.2961
32.0775
33.9442
35.8985
37.9428
40.0793
42.3107
44.6391
47.0671
49.5969
52.2306
54.9704
57.8183
60.776
63.8453
67.0275
70.3238
73.735
77.2619
80.9046
84.6631
88.537
92.5256
96.6278
100.842
105.167
109.599
114.137
118.778
123.518
128.353
133.28
138.293
143.388
148.56
153.803
159.11
164.475
169.889
175.345
180.836
186.352
191.885
197.427
202.967
208.497
214.006
219.485
224.929
230.325
235.663
240.933
246.123
251.224
256.222
261.11
265.875
270.505
274.984
279.303
283.451
287.416
291.188
294.758
298.115
301.249
304.154
306.819
309.236
311.398
313.297
314.931
316.298
317.391
318.2
318.716
318.931
318.875
318.533
317.907
317.003
315.827
314.386
312.685
310.732
308.537
306.108
303.458
300.597
297.539
294.298
290.89
287.334
283.649
279.863
276.022
272.215
268.627
265.523
262.853
260.435
258.133
255.869
253.61
251.344
249.073
246.8
244.532
242.278
240.049
237.855
235.707
233.615
231.589
229.637
227.755
225.963
224.272
222.695
221.246
219.946
218.843
217.968
217.464
217.553
218.581
4.46569
2.78445
2.03974
1.69307
1.54375
1.50174
1.52218
1.58273
1.6708
1.77931
1.90406
2.04254
2.19326
2.35539
2.52859
2.71286
2.90848
3.11593
3.33582
3.56885
3.81578
4.07746
4.35477
4.64871
4.96035
5.29088
5.64162
6.01395
6.40937
6.82941
7.27569
7.74988
8.2537
8.78891
9.35733
9.96086
10.6014
11.2811
12.0018
12.7658
13.5751
14.4317
15.3378
16.2956
17.3073
18.3749
19.5002
20.6862
21.9355
23.2506
24.6342
26.0894
27.6205
29.2296
30.9192
32.6923
34.5526
36.5018
38.5425
40.6776
42.9099
45.2424
47.6779
50.2191
52.8687
55.6294
58.5037
61.4937
64.6016
67.8294
71.1787
74.6508
78.2469
81.9678
85.8139
89.7853
93.8818
98.1028
102.447
106.914
111.501
116.206
121.027
125.96
131.002
136.149
141.397
146.74
152.174
157.693
163.29
168.958
174.689
180.476
186.309
192.182
198.083
204.004
209.933
215.862
221.778
227.671
233.525
239.333
245.085
250.769
256.372
261.882
267.288
272.577
277.737
282.754
287.616
292.31
296.824
301.147
305.267
309.174
312.857
316.306
319.511
322.463
325.153
327.573
329.715
331.575
333.147
334.426
335.406
336.082
336.426
336.485
336.237
335.688
334.841
333.701
332.276
330.571
328.595
326.358
323.869
321.139
318.182
315.01
311.638
308.084
304.363
300.497
296.51
292.437
288.339
284.326
280.535
276.974
273.567
270.244
266.955
263.677
260.404
257.139
253.886
250.654
247.454
244.298
241.195
238.159
235.199
232.326
229.552
226.882
224.323
221.885
219.578
217.415
215.416
213.622
212.062
210.867
210.146
210.197
4.95096
3.12848
2.32881
1.95883
1.80066
1.75654
1.77822
1.84237
1.93575
2.05093
2.18355
2.33096
2.49159
2.66453
2.84932
3.04588
3.25435
3.47511
3.70866
3.95567
4.21688
4.49315
4.78543
5.09474
5.42222
5.76907
6.13661
6.5262
6.93931
7.37744
7.84217
8.33513
8.85801
9.41253
10.0005
10.6238
11.2843
11.9839
12.7248
13.509
14.3386
15.2158
16.1428
17.122
18.1558
19.2465
20.3967
21.6092
22.887
24.233
25.6503
27.1423
28.7124
30.3636
32.0989
33.9213
35.8335
37.8397
39.9437
42.1488
44.4587
46.8768
49.4065
52.0512
54.8142
57.6987
60.7076
63.8438
67.1099
70.5084
74.0414
77.7107
81.518
85.4644
89.5509
93.7779
98.1455
102.653
107.301
112.087
117.01
122.067
127.256
132.574
138.017
143.581
149.261
155.052
160.948
166.943
173.029
179.199
185.444
191.755
198.123
204.539
210.99
217.467
223.958
230.451
236.934
243.393
249.816
256.19
262.502
268.74
274.888
280.934
286.863
292.662
298.317
303.813
309.137
314.275
319.215
323.942
328.445
332.713
336.733
340.493
343.985
347.197
350.121
352.747
355.067
357.076
358.766
360.133
361.173
361.878
362.226
362.256
361.951
361.316
360.354
359.072
357.477
355.576
353.379
350.896
348.139
345.119
341.85
338.348
334.629
330.708
326.605
322.339
317.931
313.411
308.822
304.235
299.73
295.334
291.025
286.769
282.541
278.328
274.129
269.948
265.793
261.675
257.606
253.597
249.661
245.811
242.058
238.411
234.883
231.481
228.212
225.085
222.11
219.298
216.667
214.251
212.082
210.26
208.857
207.989
5.33559
3.47365
2.64116
2.24907
2.07834
2.02826
2.04792
2.1131
2.20963
2.32955
2.46813
2.6225
2.79095
2.97245
3.16649
3.37289
3.59176
3.82342
4.06836
4.32722
4.60076
4.88985
5.19547
5.51869
5.86066
6.22262
6.60589
7.01185
7.44196
7.89776
8.38081
8.89278
9.43537
10.0104
10.6196
11.265
11.9485
12.6722
13.4383
14.2489
15.1064
16.0131
16.9716
17.9845
19.0544
20.1842
21.3768
22.6354
23.9633
25.3638
26.8405
28.3969
30.0368
31.7637
33.5814
35.4936
37.5041
39.6173
41.8371
44.1678
46.6135
49.1781
51.8658
54.6805
57.6261
60.7062
63.9246
67.2844
70.7891
74.4415
78.2442
82.1997
86.31
90.5767
95.0011
99.5842
104.326
109.227
114.286
119.503
124.875
130.4
136.076
141.9
147.866
153.971
160.209
166.575
173.061
179.662
186.368
193.17
200.06
207.027
214.059
221.147
228.277
235.438
242.614
249.794
256.962
264.104
271.204
278.249
285.221
292.107
298.889
305.553
312.082
318.46
324.673
330.704
336.538
342.16
347.556
352.711
357.613
362.247
366.601
370.663
374.422
377.867
380.987
383.775
386.22
388.316
390.057
391.437
392.453
393.094
393.355
393.252
392.779
391.941
390.744
389.194
387.3
385.071
382.518
379.653
376.488
373.037
369.316
365.341
361.129
356.7
352.07
347.261
342.293
337.189
331.985
326.728
321.475
316.256
311.076
305.926
300.797
295.685
290.594
285.532
280.509
275.538
270.631
265.802
261.065
256.433
251.917
247.53
243.281
239.179
235.233
231.451
227.841
224.415
221.189
218.19
215.445
213.032
210.988
209.321
6.86858
4.29797
3.17363
2.64706
2.41135
2.32977
2.33329
2.39106
2.48522
2.60585
2.74715
2.90567
3.07932
3.26687
3.46768
3.6815
3.9084
4.14867
4.4028
4.67144
4.95536
5.25547
5.57277
5.90837
6.26345
6.63928
7.03721
7.45868
7.90516
8.37824
8.87954
9.41079
9.97377
10.5704
11.2025
11.8722
12.5817
13.3331
14.1288
14.9712
15.8629
16.8066
17.8051
18.8613
19.9784
21.1594
22.4079
23.7274
25.1216
26.5943
28.1495
29.7913
31.5239
33.3514
35.2783
37.3091
39.4483
41.7006
44.0708
46.5637
49.1839
51.9364
54.8257
57.8565
61.0334
64.3606
67.8426
71.4832
75.2864
79.2556
83.3942
87.7049
92.1904
96.8527
101.693
106.714
111.914
117.295
122.856
128.596
134.512
140.603
146.866
153.296
159.889
166.64
173.542
180.589
187.773
195.086
202.519
210.061
217.702
225.429
233.229
241.091
248.998
256.938
264.893
272.849
280.788
288.693
296.546
304.332
312.03
319.624
327.095
334.425
341.597
348.592
355.393
361.983
368.344
374.461
380.317
385.896
391.185
396.169
400.833
405.166
409.155
412.788
416.056
418.948
421.456
423.573
425.292
426.607
427.515
428.009
428.088
427.76
427.017
425.875
424.339
422.417
420.119
417.456
414.44
411.084
407.403
403.414
399.133
394.578
389.769
384.726
379.467
374.013
368.386
362.606
356.703
350.712
344.679
338.634
332.596
326.57
320.559
314.569
308.606
302.683
296.812
291.006
285.28
279.651
274.131
268.735
263.476
258.367
253.417
248.637
244.034
239.618
235.396
231.379
227.582
224.025
220.731
217.762
215.127
212.756
9.41884
5.56669
3.91954
3.15233
2.79898
2.65769
2.63029
2.67051
2.75563
2.87213
3.0124
3.17194
3.34805
3.53917
3.74445
3.96353
4.19641
4.44337
4.70489
4.98164
5.27441
5.58414
5.91187
6.25875
6.62599
7.01493
7.42695
7.86355
8.32629
8.81681
9.33683
9.88817
10.4728
11.0926
11.7498
12.4465
13.1852
13.9682
14.7982
15.6779
16.6102
17.598
18.6446
19.7533
20.9276
22.1712
23.488
24.882
26.3573
27.9184
29.5699
31.3163
33.1624
35.1133
37.174
39.3497
41.6456
44.0673
46.6201
49.3097
52.1414
55.1209
58.2536
61.5449
65.0001
68.6242
72.4223
76.3991
80.5591
84.9064
89.4448
94.1778
99.1082
104.239
109.571
115.107
120.846
126.79
132.937
139.287
145.836
152.583
159.523
166.652
173.964
181.453
189.113
196.934
204.908
213.025
221.275
229.645
238.122
246.693
255.342
264.055
272.814
281.602
290.402
299.194
307.96
316.679
325.331
333.897
342.355
350.685
358.867
366.88
374.704
382.319
389.705
396.845
403.718
410.307
416.594
422.564
428.199
433.486
438.409
442.954
447.11
450.865
454.207
457.128
459.618
461.671
463.28
464.441
465.15
465.403
465.204
464.545
463.435
461.89
459.917
457.525
454.726
451.532
447.958
444.019
439.732
435.115
430.187
424.968
419.479
413.741
407.775
401.604
395.247
388.726
382.067
375.301
368.465
361.59
354.702
347.814
340.939
334.088
327.273
320.508
313.807
307.186
300.662
294.251
287.968
281.829
275.848
270.036
264.407
258.969
253.731
248.703
243.892
239.308
234.963
230.875
227.059
223.564
220.384
217.392
12.8008
7.17471
4.8227
3.7342
3.22285
2.9996
2.92893
2.94341
3.01356
3.1215
3.25722
3.41488
3.59101
3.78357
3.99143
4.21409
4.45146
4.70378
4.97152
5.25535
5.55611
5.87476
6.21237
6.57014
6.94936
7.35141
7.77775
8.22996
8.70969
9.2187
9.75884
10.3321
10.9405
11.5862
12.2717
12.9993
13.7716
14.5914
15.4616
16.3852
17.3656
18.4061
19.5103
20.6821
21.9255
23.2446
24.6438
26.1279
27.7016
29.3699
31.138
33.0112
34.9952
37.0957
39.3184
41.6694
44.1549
46.7811
49.5543
52.4808
55.5671
58.8194
62.2441
65.8473
69.6352
73.6137
77.7883
82.1646
86.7477
91.5421
96.5523
101.782
107.235
112.913
118.818
124.953
131.317
137.91
144.732
151.78
159.052
166.544
174.252
182.169
190.289
198.604
207.106
215.785
224.63
233.63
242.772
252.041
261.423
270.902
280.459
290.076
299.736
309.417
319.098
328.758
338.376
347.927
357.389
366.74
375.956
385.014
393.891
402.565
411.013
419.213
427.144
434.784
442.115
449.116
455.77
462.058
467.964
473.472
478.567
483.235
487.464
491.243
494.559
497.405
499.773
501.656
503.048
503.947
504.349
504.256
503.662
502.561
500.983
498.933
496.423
493.464
490.07
486.254
482.034
477.428
472.453
467.132
461.483
455.531
449.297
442.804
436.075
429.133
421.999
414.696
407.248
399.683
392.034
384.333
376.607
368.877
361.161
353.474
345.832
338.251
330.748
323.34
316.045
308.881
301.864
295.01
288.335
281.851
275.571
269.505
263.662
258.051
252.68
247.559
242.697
238.109
233.804
229.821
226.14
222.605
17.0556
9.09894
5.85522
4.37078
3.66692
3.34392
3.21937
3.2025
3.25256
3.34828
3.47663
3.63014
3.80445
3.99695
4.2062
4.43149
4.67263
4.9298
5.20345
5.49425
5.80306
6.13087
6.47882
6.84816
7.24025
7.65655
8.09865
8.56822
9.06704
9.59704
10.1602
10.7588
11.395
12.0713
12.7902
13.5546
14.3674
15.2317
16.1508
17.1281
18.1675
19.2728
20.4481
21.6979
23.0267
24.4394
25.9411
27.537
29.2328
31.0342
32.9472
34.978
37.1331
39.4189
41.8424
44.4105
47.1302
50.0086
53.053
56.2707
59.669
63.255
67.0359
71.0188
75.2103
79.6173
84.2458
89.102
94.1913
99.5189
105.089
110.907
116.974
123.294
129.869
136.699
143.784
151.125
158.718
166.561
174.651
182.981
191.547
200.341
209.355
218.578
228.001
237.612
247.397
257.344
267.436
277.657
287.99
298.415
308.912
319.46
330.038
340.621
351.186
361.708
372.163
382.524
392.767
402.865
412.793
422.525
432.037
441.304
450.3
459.004
467.391
475.439
483.128
490.436
497.346
503.838
509.895
515.502
520.644
525.307
529.479
533.149
536.307
538.945
541.057
542.637
543.683
544.19
544.159
543.593
542.464
540.816
538.655
535.992
532.841
529.216
525.131
520.605
515.656
510.305
504.571
498.479
492.05
485.31
478.281
470.99
463.46
455.716
447.78
439.674
431.423
423.055
414.6
406.088
397.549
389.008
380.484
371.997
363.567
355.21
346.945
338.791
330.768
322.892
315.183
307.657
300.331
293.217
286.328
279.675
273.269
267.117
261.229
255.611
250.274
245.226
240.476
236.05
231.914
227.912
22.2696
11.3419
7.00334
5.04785
4.11913
3.68078
3.49292
3.44052
3.4674
3.5485
3.66767
3.81575
3.98734
4.17927
4.38972
4.61775
4.86305
5.1257
5.40615
5.70505
6.02329
6.36192
6.72212
7.10524
7.51274
7.94622
8.40739
8.89811
9.42034
9.97623
10.568
11.1982
11.8693
12.5841
13.3457
14.157
15.0217
15.9431
16.9252
17.972
19.0878
20.2772
21.545
22.8962
24.3363
25.8709
27.506
29.2476
31.1022
33.0767
35.1779
37.4131
39.7896
42.3152
44.9976
47.8448
50.8649
54.0659
57.4561
61.0438
64.8369
68.8436
73.0718
77.529
82.2228
87.1601
92.3476
97.7915
103.498
109.471
115.716
122.236
129.034
136.112
143.472
151.112
159.033
167.232
175.705
184.449
193.457
202.723
212.239
221.996
231.983
242.187
252.597
263.197
273.972
284.906
295.981
307.177
318.475
329.851
341.282
352.746
364.215
375.665
387.068
398.397
409.623
420.719
431.657
442.409
452.946
463.243
473.271
483.005
492.418
501.486
510.184
518.491
526.382
533.839
540.842
547.373
553.414
558.951
563.969
568.455
572.399
575.79
578.621
580.885
582.575
583.693
584.236
584.196
583.59
582.372
580.598
578.27
575.403
572.012
568.111
563.719
558.851
553.529
547.773
541.607
535.053
528.136
520.88
513.313
505.458
497.344
488.996
480.438
471.695
462.789
453.746
444.592
435.356
426.068
416.757
407.449
398.169
388.936
379.772
370.696
361.727
352.886
344.193
335.666
327.324
319.185
311.266
303.581
296.142
288.961
282.048
275.413
269.063
263.005
257.247
251.795
246.651
241.834
237.301
232.914
28.5645
13.9208
8.26077
5.75579
4.5706
4.00288
3.74484
3.65361
3.65541
3.72079
3.83032
3.973
4.14238
4.33465
4.5476
4.78004
5.0315
5.302
5.59193
5.90197
6.23305
6.58627
6.96295
7.36456
7.79272
8.24922
8.736
9.25517
9.80898
10.3999
11.0305
11.7038
12.4226
13.1902
14.0103
14.8864
15.8226
16.8232
17.8926
19.0358
20.2577
21.564
22.9601
24.4523
26.0468
27.7504
29.57
31.5129
33.5868
35.7994
38.1589
40.6738
43.3525
46.2038
49.2368
52.4603
55.8834
59.5153
63.365
67.4414
71.7534
76.3094
81.1177
86.1864
91.5228
97.134
103.026
109.206
115.678
122.446
129.514
136.886
144.561
152.541
160.826
169.412
178.299
187.48
196.951
206.705
216.734
227.028
237.578
248.37
259.392
270.629
282.064
293.681
305.46
317.384
329.43
341.578
353.803
366.081
378.385
390.687
402.961
415.176
427.304
439.314
451.177
462.861
474.337
485.576
496.548
507.225
517.579
527.582
537.208
546.432
555.229
563.577
571.452
578.836
585.71
592.055
597.857
603.101
607.774
611.866
615.366
618.267
620.563
622.249
623.319
623.788
623.643
622.886
621.488
619.499
616.925
613.779
610.076
605.837
601.077
595.818
590.078
583.881
577.25
570.21
562.787
555.006
546.895
538.481
529.789
520.849
511.688
502.331
492.801
483.124
473.323
463.424
453.457
443.448
433.428
423.422
413.455
403.551
393.73
384.012
374.418
364.968
355.684
346.585
337.691
329.019
320.586
312.408
304.497
296.864
289.521
282.476
275.737
269.311
263.201
257.413
251.94
246.8
241.938
237.254
36.1341
16.8768
9.63007
6.48927
5.01542
4.30571
3.97263
3.83959
3.8177
3.86758
3.96885
4.1082
4.27801
4.47379
4.69289
4.93388
5.19614
5.4796
5.78467
6.11205
6.46278
6.83809
7.23949
7.66867
8.12753
8.61819
9.14295
9.70431
10.305
10.948
11.6364
12.3738
13.1638
14.0104
14.9179
15.8909
16.9343
18.0534
19.2537
20.5411
21.922
23.4028
24.9906
26.6927
28.5168
30.4709
32.5634
34.803
37.1985
39.7593
42.4948
45.4147
48.5286
51.8466
55.3785
59.1343
63.1237
67.3565
71.8421
76.5896
81.608
86.9055
92.4901
98.369
104.549
111.036
117.835
124.95
132.386
140.144
148.226
156.632
165.362
174.413
183.782
193.465
203.455
213.745
224.326
235.189
246.322
257.713
269.349
281.213
293.289
305.56
318.007
330.608
343.343
356.19
369.125
382.124
395.16
408.205
421.232
434.21
447.108
459.896
472.542
485.014
497.281
509.31
521.073
532.538
543.677
554.459
564.857
574.844
584.395
593.483
602.087
610.182
617.748
624.767
631.22
637.092
642.371
647.043
651.098
654.528
657.322
659.48
660.994
661.867
662.082
661.705
660.642
658.934
656.608
653.673
650.142
646.032
641.363
636.158
630.435
624.217
617.526
610.389
602.83
594.876
586.555
577.895
568.922
559.665
550.151
540.409
530.471
520.356
510.09
499.697
489.202
478.63
468.008
457.362
446.72
436.109
425.554
415.077
404.699
394.441
384.324
374.369
364.599
355.031
345.685
336.581
327.737
319.167
310.881
302.895
295.217
287.857
280.822
274.116
267.741
261.699
255.979
250.598
245.486
240.602
45.6319
20.4077
11.176
7.27215
5.46414
4.59582
4.18238
4.00675
3.96307
4.00153
4.09936
4.2411
4.41792
4.6246
4.85805
5.11661
5.39955
5.70679
6.03881
6.39648
6.78103
7.194
7.63724
8.11287
8.62333
9.17128
9.75966
10.3917
11.0709
11.8011
12.5864
13.4313
14.3406
15.3195
16.3735
17.5087
18.7314
20.0485
21.467
22.9946
24.6393
26.4095
28.3137
30.3612
32.5614
34.924
37.4591
40.177
43.0883
46.2035
49.5334
53.0886
56.8798
60.9176
65.2123
69.7739
74.6122
79.7362
85.1546
90.8756
96.9065
103.254
109.924
116.921
124.249
131.912
139.911
148.249
156.924
165.936
175.281
184.958
194.961
205.284
215.92
226.859
238.093
249.609
261.394
273.437
285.72
298.229
310.947
323.854
336.932
350.16
363.516
376.976
390.517
404.114
417.743
431.376
444.986
458.543
472.017
485.377
498.59
511.625
524.45
537.031
549.338
561.34
573.006
584.307
595.215
605.702
615.742
625.308
634.377
642.926
650.932
658.375
665.235
671.498
677.147
682.167
686.554
690.296
693.379
695.81
697.568
698.668
699.094
698.871
697.986
696.404
694.192
691.343
687.873
683.796
679.131
673.897
668.117
661.821
655.027
647.757
640.039
631.9
623.368
614.471
605.238
595.696
585.873
575.798
565.498
555
544.322
533.494
522.546
511.504
500.392
489.231
478.047
466.864
455.709
444.606
433.579
422.651
411.839
401.165
390.652
380.32
370.191
360.283
350.616
341.21
332.082
323.248
314.719
306.505
298.617
291.061
283.845
276.971
270.439
264.247
258.382
252.86
247.594
242.624
57.373
24.5586
12.8824
8.08149
5.89957
4.86404
4.37313
4.16243
4.1059
4.14403
4.2508
4.40846
4.60696
4.84038
5.10531
5.39996
5.72366
6.07655
6.4594
6.8735
7.32059
7.80285
8.32283
8.8835
9.48823
10.1408
10.8454
11.6065
12.4291
13.3184
14.2804
15.3213
16.4477
17.6669
18.9866
20.415
21.9609
23.6336
25.4427
27.3987
29.5117
31.7925
34.252
36.9012
39.7515
42.8145
46.1017
49.6246
53.3946
57.4227
61.7198
66.2964
71.1621
76.3266
81.7983
87.5854
93.6947
100.133
106.904
114.014
121.464
129.258
137.395
145.877
154.702
163.868
173.371
183.208
193.373
203.86
214.661
225.767
237.169
248.856
260.817
273.037
285.502
298.198
311.107
324.213
337.499
350.945
364.532
378.24
392.047
405.931
419.868
433.834
447.805
461.755
475.657
489.486
503.214
516.811
530.247
543.49
556.509
569.273
581.75
593.91
605.723
617.16
628.191
638.793
648.94
658.606
667.765
676.398
684.481
691.997
698.924
705.243
710.937
716.002
720.416
724.169
727.269
729.702
731.441
732.541
732.926
732.675
731.745
730.09
727.806
724.877
721.317
717.139
712.357
706.995
701.073
694.614
687.642
680.147
672.166
663.755
654.946
645.765
636.244
626.408
616.286
605.907
595.296
584.48
573.487
562.344
551.095
539.758
528.338
516.856
505.335
493.791
482.25
470.733
459.266
447.87
436.569
425.385
414.329
403.427
392.7
382.17
371.86
361.788
351.974
342.436
333.191
324.252
315.631
307.337
299.379
291.763
284.496
277.578
271.008
264.782
258.882
253.328
248.011
243.069
71.3189
29.237
14.6763
8.87282
6.3013
5.10722
4.55459
4.32696
4.275
4.33254
4.46907
4.66479
4.90854
5.19388
5.51739
5.87754
6.27409
6.70781
7.18024
7.69359
8.25064
8.85477
9.5099
10.2205
10.9917
11.8294
12.7398
13.7298
14.8066
15.9782
17.2532
18.6407
20.1503
21.7924
23.5778
25.518
27.6249
29.9109
32.3895
35.0754
37.981
41.1192
44.502
48.1415
52.0497
56.2383
60.7185
65.5006
70.5944
76.0086
81.7508
87.8278
94.2453
101.008
108.119
115.58
123.392
131.556
140.069
148.928
158.129
167.667
177.537
187.73
198.24
209.057
220.172
231.575
243.255
255.2
267.398
279.834
292.496
305.369
318.437
331.684
345.094
358.647
372.327
386.115
399.992
413.939
427.937