/*--------------------------------*- C++ -*----------------------------------*\
| =========                 |                                                 |
| \\      /  F ield         | OpenFOAM: The Open Source CFD Toolbox           |
|  \\    /   O peration     | Version:  2412                                  |
|   \\  /    A nd           | Website:  www.openfoam.com                      |
|    \\/     M anipulation  |                                                 |
\*---------------------------------------------------------------------------*/
FoamFile
{
    version     2.0;
    format      ascii;
    arch        "LSB;label=32;scalar=64";
    class       volScalarField;
    location    "200";
    object      k;
}
// * * * * * * * * * * * * * * * * * * * * * * * * * * * * * * * * * * * * * //

dimensions      [0 2 -2 0 0 0 0];

internalField   nonuniform List<scalar> 
12225
(
16.4738
17.8826
14.643
11.1488
9.25843
8.14748
7.36772
6.78629
6.3536
6.02888
5.78138
5.59196
5.44925
5.34592
5.27927
5.24676
5.25711
5.09589
3.58976
6.10246
5.80156
5.00992
4.24043
3.7131
3.33831
3.05986
2.8488
2.68677
2.56047
2.46078
2.38178
2.31928
2.26966
2.23357
2.21415
2.13518
0.644365
1.62835
2.0365
2.05487
2.02021
1.94045
1.8444
1.75361
1.67212
1.6008
1.53916
1.48629
1.44108
1.40181
1.36736
1.33671
1.30959
1.27862
0.411685
0.509772
0.694285
0.786965
0.84356
0.880681
0.904271
0.918602
0.926978
0.929694
0.928846
0.926241
0.921204
0.914566
0.905763
0.897457
0.882987
0.872571
0.383849
0.384776
0.394338
0.404831
0.415473
0.427989
0.440949
0.454437
0.468162
0.481756
0.494036
0.506127
0.515909
0.525482
0.531419
0.53771
0.539106
0.541307
0.383714
0.385484
0.381208
0.369338
0.354171
0.340162
0.32903
0.320611
0.315631
0.312419
0.312527
0.313392
0.315242
0.318671
0.321153
0.324969
0.326892
0.329726
0.381377
0.388138
0.388558
0.383395
0.374084
0.360385
0.346472
0.33262
0.321121
0.310801
0.302384
0.294674
0.288705
0.283254
0.279503
0.275685
0.273499
0.270731
0.377934
0.386103
0.389955
0.389561
0.387054
0.381693
0.374789
0.366068
0.357213
0.347271
0.338741
0.329863
0.322841
0.315218
0.309895
0.30351
0.299854
0.294529
0.375712
0.381405
0.386558
0.38862
0.388445
0.387278
0.385023
0.381258
0.377284
0.372144
0.367456
0.361853
0.357295
0.351755
0.347787
0.342543
0.339428
0.334466
0.374741
0.377777
0.381158
0.384276
0.385898
0.386106
0.385767
0.384737
0.383184
0.380878
0.378663
0.375778
0.373324
0.37021
0.367831
0.364668
0.362558
0.359361
0.374548
0.375381
0.376851
0.379267
0.381179
0.382312
0.383042
0.383003
0.382689
0.381923
0.380969
0.379626
0.378379
0.376777
0.375404
0.373671
0.372279
0.370452
0.374187
0.373977
0.374393
0.375528
0.376903
0.378026
0.378952
0.379462
0.37965
0.379554
0.37927
0.378703
0.378046
0.377185
0.376352
0.375357
0.374396
0.373314
0.374091
0.372884
0.372723
0.372922
0.373434
0.374112
0.374796
0.375336
0.375695
0.37585
0.375816
0.375697
0.375435
0.375032
0.374547
0.373979
0.373317
0.37265
0.374002
0.372325
0.37137
0.37091
0.370744
0.370769
0.370873
0.371048
0.371194
0.371271
0.37125
0.371189
0.371039
0.370821
0.370505
0.37017
0.36969
0.369288
0.373919
0.371991
0.370556
0.369556
0.368819
0.368271
0.36785
0.36752
0.367233
0.366965
0.366688
0.366409
0.366097
0.365784
0.365406
0.365055
0.364579
0.364224
0.373863
0.371774
0.370063
0.36871
0.367599
0.366653
0.365825
0.365086
0.364401
0.363758
0.363135
0.362539
0.361943
0.361375
0.36078
0.360236
0.359616
0.359115
0.373832
0.37165
0.36978
0.368217
0.366878
0.36569
0.364609
0.363607
0.362658
0.361751
0.360869
0.360018
0.359181
0.358377
0.357572
0.356815
0.35603
0.355335
0.373821
0.371601
0.369659
0.367994
0.366536
0.365221
0.364006
0.362864
0.361773
0.360721
0.359699
0.358706
0.357737
0.356796
0.355877
0.354988
0.354119
0.353285
0.373832
0.371631
0.369702
0.368041
0.366579
0.365252
0.36402
0.362857
0.361742
0.360665
0.359617
0.358597
0.357604
0.356636
0.355697
0.354784
0.353903
0.353044
0.373871
0.371766
0.369966
0.368458
0.367149
0.365969
0.364881
0.363859
0.362881
0.361932
0.361006
0.360099
0.359213
0.358343
0.357497
0.356662
0.355861
0.355058
0.373943
0.372025
0.370492
0.369304
0.368319
0.36745
0.366658
0.365919
0.365191
0.36446
0.363711
0.362961
0.3622
0.361422
0.360631
0.359825
0.359027
0.358205
0.374071
0.372527
0.371546
0.370979
0.37056
0.370147
0.369751
0.369325
0.368763
0.368098
0.367299
0.366413
0.365412
0.364383
0.36328
0.362176
0.361014
0.359878
0.374277
0.373581
0.373724
0.373986
0.374017
0.373865
0.373432
0.372626
0.371483
0.370154
0.368556
0.366879
0.364957
0.363023
0.360872
0.358811
0.356544
0.354465
0.374678
0.375658
0.377119
0.377543
0.377167
0.376057
0.374015
0.371421
0.368131
0.364533
0.36049
0.356241
0.351429
0.346775
0.341834
0.337396
0.332596
0.328513
0.375607
0.378663
0.379416
0.378268
0.375378
0.369916
0.362639
0.354602
0.345785
0.337132
0.328389
0.320439
0.313119
0.306546
0.300498
0.294895
0.289938
0.285352
0.377629
0.37987
0.379365
0.374013
0.366066
0.355675
0.345077
0.335532
0.327226
0.320905
0.315842
0.312846
0.310585
0.310555
0.311096
0.312749
0.31554
0.318152
0.384791
0.396435
0.42494
0.453834
0.475562
0.494527
0.510754
0.525941
0.541797
0.556816
0.573497
0.588778
0.605851
0.620796
0.63765
0.65198
0.66832
0.68131
0.508288
0.759234
1.11869
1.30391
1.38632
1.42302
1.44052
1.45115
1.45196
1.45026
1.44596
1.438
1.42916
1.41854
1.40826
1.39661
1.38647
1.3742
1.57462
4.09676
4.77636
4.60849
4.25727
3.912
3.61878
3.36883
3.1538
2.97002
2.81426
2.68178
2.56906
2.47218
2.38879
2.3159
2.25242
2.19537
10.5955
15.6933
14.5408
12.0063
10.1361
8.95458
8.11646
7.45924
6.92868
6.49687
6.14154
5.84511
5.59485
5.38106
5.1964
5.03552
4.89319
4.76899
0.00734027
0.00821653
0.0094029
0.0108955
0.0126163
0.0144687
0.0163581
0.0182034
0.0199422
0.0215326
0.0229532
0.0241986
0.0252778
0.0262121
0.0270353
0.0277978
0.0285782
0.0295128
0.0308579
0.0327539
0.0349792
0.0374197
0.0400202
0.0427562
0.0456192
0.04861
0.0517348
0.0550029
0.0584258
0.0620164
0.0657887
0.0697577
0.0739391
0.0783499
0.0830078
0.0879317
0.0931397
0.0986496
0.104481
0.110653
0.117188
0.124107
0.131434
0.139193
0.147408
0.156105
0.16531
0.17505
0.18535
0.196239
0.207742
0.219885
0.23269
0.246179
0.26037
0.275279
0.290934
0.307361
0.324585
0.342621
0.361486
0.38119
0.401745
0.423156
0.445427
0.468558
0.492546
0.517382
0.543058
0.569557
0.596863
0.624952
0.653795
0.683347
0.713567
0.744408
0.775827
0.80777
0.840188
0.87302
0.906204
0.939672
0.97336
1.0072
1.04111
1.07501
1.10884
1.14248
1.17588
1.20894
1.24162
1.27381
1.30543
1.33639
1.3666
1.39599
1.42446
1.45194
1.47835
1.50361
1.52765
1.5504
1.57177
1.59171
1.61012
1.62696
1.64214
1.65561
1.66724
1.67697
1.68474
1.69076
1.69489
1.69697
1.69761
1.69654
1.69357
1.68884
1.6823
1.67402
1.66401
1.6523
1.63892
1.6239
1.60729
1.58915
1.56951
1.54846
1.52604
1.50232
1.47736
1.45123
1.42397
1.39565
1.36647
1.33649
1.30582
1.27452
1.2427
1.21046
1.17788
1.14505
1.11208
1.07906
1.04609
1.01327
0.980691
0.948475
0.916744
0.88564
0.855424
0.829677
0.832415
0.848963
0.866507
0.883846
0.900945
0.917813
0.934456
0.950861
0.967018
0.982909
0.998514
1.01381
1.02879
1.04342
1.05769
1.07159
1.08509
1.09817
1.11081
1.12296
1.13454
1.14538
1.15523
1.16347
1.16976
1.17003
1.16879
1.11957
0.00880187
0.00935028
0.0107093
0.0125893
0.0147994
0.0172052
0.0197087
0.0222398
0.0247506
0.0272116
0.029607
0.0319337
0.0341973
0.0364102
0.0385911
0.0407654
0.0429677
0.0452435
0.0476443
0.0501977
0.0528872
0.0556935
0.0586045
0.0616162
0.06473
0.0679517
0.0712889
0.0747513
0.0783488
0.0820924
0.0859929
0.0900622
0.0943118
0.0987549
0.103406
0.108283
0.113399
0.118761
0.124381
0.130273
0.13645
0.142926
0.149717
0.156837
0.164303
0.172131
0.180337
0.188939
0.197952
0.207394
0.217278
0.227619
0.238427
0.249707
0.261453
0.27364
0.286289
0.299444
0.313116
0.327317
0.342049
0.357323
0.373139
0.389505
0.406421
0.42389
0.441911
0.460488
0.479618
0.499305
0.519551
0.540365
0.561754
0.583676
0.60608
0.628962
0.652302
0.676093
0.700322
0.724977
0.750024
0.775442
0.801208
0.827303
0.853701
0.88038
0.907313
0.934476
0.961844
0.989401
1.01712
1.04495
1.07287
1.10084
1.12884
1.15683
1.18477
1.21264
1.2404
1.26801
1.29543
1.32261
1.34952
1.37608
1.40228
1.42808
1.45347
1.47849
1.50288
1.52655
1.54948
1.57175
1.59336
1.61424
1.63442
1.65386
1.67249
1.69031
1.70732
1.72346
1.73867
1.75293
1.76621
1.77847
1.78971
1.79994
1.8091
1.81719
1.82417
1.83002
1.83474
1.83832
1.84062
1.84154
1.84143
1.84019
1.83788
1.83446
1.82997
1.82443
1.81786
1.81031
1.80181
1.79241
1.78213
1.77103
1.75915
1.74653
1.73322
1.71928
1.70484
1.6908
1.68096
1.67314
1.66492
1.65599
1.64644
1.63635
1.62581
1.61487
1.60362
1.59212
1.58042
1.56861
1.55674
1.54488
1.5331
1.52147
1.51003
1.49882
1.4879
1.47734
1.46715
1.4573
1.44766
1.43814
1.42843
1.41868
1.40688
1.36673
0.0116196
0.0120265
0.013882
0.0166334
0.0199016
0.0234381
0.0270892
0.0307661
0.0344207
0.0380291
0.0415828
0.0450826
0.0485357
0.0519534
0.0553507
0.0587461
0.0621613
0.0656205
0.0691474
0.07276
0.0764682
0.0802787
0.0841978
0.0882335
0.0923955
0.0966948
0.101144
0.105754
0.11054
0.115515
0.12069
0.126079
0.131695
0.13755
0.143655
0.150019
0.156656
0.163582
0.170811
0.178354
0.186225
0.194437
0.203004
0.211938
0.221255
0.230969
0.241093
0.251645
0.262638
0.274088
0.286008
0.298414
0.311319
0.324742
0.338704
0.353242
0.36836
0.384049
0.400316
0.417174
0.434632
0.452704
0.471398
0.490725
0.510693
0.531313
0.552591
0.574537
0.597156
0.620457
0.644442
0.669116
0.694475
0.720509
0.747212
0.774585
0.802626
0.831332
0.8607
0.890728
0.921384
0.952633
0.984456
1.01683
1.04974
1.08316
1.11706
1.15141
1.18619
1.22136
1.25689
1.29274
1.32886
1.36522
1.40176
1.43844
1.47522
1.51204
1.54885
1.58561
1.62226
1.65875
1.69501
1.73094
1.76649
1.80157
1.83609
1.8699
1.90306
1.93555
1.96733
1.99839
2.02868
2.05814
2.08675
2.11443
2.14115
2.16685
2.19151
2.21505
2.23742
2.25859
2.27851
2.29713
2.31443
2.33038
2.34491
2.35803
2.36971
2.37991
2.38861
2.39577
2.40136
2.40535
2.40767
2.40855
2.40799
2.40596
2.40248
2.39758
2.39128
2.38363
2.37468
2.36446
2.35303
2.34044
2.32675
2.31202
2.29631
2.27974
2.2625
2.2453
2.22972
2.21476
2.19935
2.18318
2.16627
2.14872
2.1306
2.11203
2.09309
2.07387
2.05445
2.03492
2.01539
1.99594
1.97666
1.95765
1.93896
1.92069
1.90288
1.88559
1.86895
1.85293
1.83748
1.8226
1.80816
1.79493
1.78165
1.74921
0.0149392
0.0154408
0.0181065
0.0220298
0.0265917
0.0314072
0.0362712
0.0410907
0.0458308
0.0504845
0.0550568
0.0595591
0.0640055
0.0684125
0.072798
0.0771815
0.0815838
0.0860261
0.0905294
0.0951127
0.0997926
0.104584
0.109501
0.114558
0.119769
0.12515
0.130716
0.136481
0.142463
0.148675
0.155133
0.161852
0.168846
0.17613
0.183717
0.191622
0.199859
0.208444
0.217391
0.226715
0.23643
0.246552
0.257095
0.268076
0.27951
0.291414
0.303805
0.3167
0.330118
0.344076
0.358593
0.373686
0.389374
0.405675
0.422608
0.440192
0.458441
0.477368
0.496987
0.517315
0.538367
0.560159
0.582706
0.606021
0.630118
0.655009
0.680705
0.707215
0.734546
0.762706
0.791695
0.821517
0.852168
0.883645
0.915942
0.949052
0.982966
1.01767
1.05315
1.08939
1.12635
1.16402
1.20235
1.24134
1.28093
1.32111
1.36182
1.40304
1.44472
1.48682
1.5293
1.57209
1.61516
1.65843
1.70186
1.7454
1.78897
1.83253
1.87601
1.91934
1.96245
2.00528
2.04775
2.08979
2.13132
2.17226
2.21256
2.25215
2.29098
2.32903
2.36623
2.40254
2.43789
2.47223
2.50551
2.53765
2.5686
2.59832
2.62674
2.65381
2.67948
2.7037
2.72641
2.74758
2.76715
2.78509
2.80137
2.81595
2.82881
2.83992
2.84927
2.85682
2.86254
2.86637
2.86823
2.86847
2.86698
2.86374
2.85881
2.85222
2.844
2.8342
2.82287
2.81007
2.79586
2.7803
2.76346
2.74542
2.72627
2.70614
2.68524
2.66411
2.64355
2.62314
2.60225
2.58065
2.55832
2.53532
2.51175
2.48772
2.46333
2.43867
2.41387
2.38902
2.36423
2.33962
2.31528
2.2913
2.26779
2.24482
2.22246
2.20077
2.17983
2.15967
2.14032
2.12184
2.10428
2.08841
2.07397
2.04557
0.0179824
0.0189922
0.0228066
0.0281266
0.0340835
0.040181
0.046198
0.052063
0.0577693
0.063333
0.0687772
0.0741261
0.0794035
0.0846326
0.0898363
0.0950374
0.100259
0.105522
0.110851
0.116266
0.121787
0.127434
0.133224
0.139177
0.145311
0.151643
0.15819
0.164972
0.172005
0.179306
0.186892
0.194781
0.202988
0.21153
0.220423
0.229683
0.239325
0.249367
0.259825
0.270716
0.282058
0.293867
0.306163
0.318963
0.332287
0.346154
0.360585
0.375599
0.391219
0.407465
0.42436
0.441924
0.460179
0.479146
0.498846
0.5193
0.540529
0.562551
0.585386
0.609054
0.633572
0.658959
0.685232
0.712404
0.74049
0.769501
0.799448
0.830337
0.862174
0.894963
0.928703
0.963391
0.999023
1.03559
1.07308
1.11148
1.15078
1.19096
1.23198
1.27383
1.31647
1.35988
1.40402
1.44885
1.49433
1.54043
1.58709
1.63427
1.68192
1.73
1.77844
1.8272
1.8762
1.92538
1.97469
2.02405
2.0734
2.12268
2.1718
2.22071
2.26931
2.31754
2.36532
2.41258
2.45923
2.5052
2.55043
2.59485
2.6384
2.68102
2.72265
2.76321
2.80265
2.8409
2.87789
2.91355
2.94783
2.98067
3.012
3.04176
3.06991
3.09637
3.12111
3.14407
3.1652
3.18447
3.20183
3.21725
3.2307
3.24217
3.25163
3.25905
3.26441
3.26758
3.26869
3.26786
3.26505
3.26028
3.2536
3.24505
3.23466
3.2225
3.20861
3.19307
3.17595
3.15732
3.13726
3.11586
3.09322
3.06947
3.04481
3.01962
2.99437
2.96891
2.94292
2.91622
2.88881
2.86074
2.8321
2.803
2.77357
2.74392
2.71417
2.68445
2.65487
2.62555
2.5966
2.56814
2.54025
2.51304
2.48657
2.46091
2.43615
2.41233
2.38953
2.36786
2.34743
2.32891
2.31218
2.28594
0.020288
0.0223488
0.0276474
0.0345255
0.0419076
0.0492452
0.0563414
0.0631639
0.0697392
0.0761083
0.0823124
0.0883893
0.0943731
0.100295
0.106184
0.112067
0.117971
0.123921
0.129942
0.136058
0.142293
0.148667
0.155205
0.161925
0.16885
0.175999
0.183393
0.19105
0.198991
0.207235
0.215799
0.224704
0.233965
0.243603
0.253636
0.26408
0.274956
0.286281
0.298075
0.310358
0.32315
0.33647
0.350342
0.364786
0.379824
0.395481
0.411778
0.42874
0.44639
0.464752
0.483851
0.50371
0.524355
0.54581
0.568101
0.591252
0.615284
0.640222
0.666086
0.692897
0.720675
0.749437
0.779199
0.809978
0.841784
0.87463
0.908522
0.943466
0.979466
1.01652
1.05463
1.09379
1.13398
1.1752
1.21744
1.26067
1.30487
1.35002
1.3961
1.44306
1.49088
1.53952
1.58895
1.63911
1.68996
1.74147
1.79356
1.8462
1.89933
1.9529
2.00683
2.06107
2.11555
2.17019
2.22494
2.2797
2.33442
2.38901
2.4434
2.4975
2.55123
2.60451
2.65726
2.7094
2.76083
2.81149
2.8613
2.91017
2.95804
3.00483
3.05048
3.0949
3.13803
3.17978
3.22009
3.25889
3.29612
3.33169
3.36556
3.39765
3.42791
3.45628
3.48271
3.50713
3.5295
3.54979
3.56794
3.58392
3.5977
3.60926
3.61858
3.62564
3.63039
3.63274
3.63286
3.63077
3.62647
3.62001
3.61144
3.60078
3.58811
3.57346
3.55693
3.53856
3.51846
3.49669
3.47336
3.44855
3.42237
3.39494
3.36643
3.33712
3.30732
3.27702
3.24611
3.21447
3.18212
3.14912
3.11557
3.08158
3.04729
3.01283
2.97832
2.9439
2.90971
2.87586
2.84249
2.80971
2.77762
2.74632
2.7159
2.68643
2.658
2.63068
2.60458
2.57983
2.55658
2.53544
2.51621
2.4904
0.021737
0.0254034
0.0324496
0.0409618
0.0497454
0.0582623
0.0663659
0.074069
0.0814313
0.0885177
0.0953871
0.102091
0.108675
0.115178
0.121637
0.128085
0.134553
0.141071
0.147666
0.154367
0.161198
0.168187
0.175356
0.182729
0.19033
0.198182
0.206304
0.21472
0.223451
0.232516
0.241936
0.251731
0.261923
0.27253
0.283573
0.295072
0.30705
0.319526
0.332522
0.346062
0.360167
0.374862
0.39017
0.406117
0.422727
0.440027
0.458042
0.476799
0.496326
0.516649
0.537795
0.559793
0.58267
0.606453
0.631169
0.656844
0.683502
0.711167
0.739861
0.769606
0.800422
0.832327
0.865337
0.899467
0.934728
0.971131
1.00868
1.04739
1.08725
1.12826
1.17042
1.21372
1.25815
1.3037
1.35035
1.39807
1.44686
1.49666
1.54747
1.59923
1.65192
1.70549
1.75991
1.81511
1.87106
1.92769
1.98496
2.04281
2.10117
2.15998
2.21917
2.27867
2.33841
2.3983
2.45828
2.51825
2.57814
2.63786
2.69732
2.75644
2.81512
2.87327
2.9308
2.98763
3.04365
3.09878
3.15293
3.20602
3.25797
3.30869
3.3581
3.40612
3.45267
3.49766
3.54103
3.5827
3.62259
3.66063
3.69676
3.73091
3.76302
3.79302
3.82085
3.84647
3.86982
3.89086
3.90954
3.92584
3.9397
3.95112
3.96007
3.96654
3.97046
3.97183
3.97073
3.96718
3.96122
3.9529
3.94227
3.92938
3.91428
3.89705
3.87775
3.85647
3.8333
3.80834
3.78166
3.75338
3.72361
3.69244
3.66002
3.62658
3.59235
3.5574
3.52172
3.4853
3.44816
3.41037
3.37205
3.33331
3.2943
3.25516
3.21603
3.17706
3.13838
3.10014
3.06246
3.02549
2.98931
2.95405
2.91979
2.88663
2.85466
2.82396
2.79464
2.76689
2.74085
2.71705
2.69521
2.66879
0.0228473
0.0283834
0.0371896
0.0472708
0.0573754
0.0669927
0.0760266
0.0845317
0.0925992
0.100317
0.107762
0.114999
0.122086
0.12907
0.135996
0.142905
0.149832
0.156812
0.163878
0.171059
0.178386
0.185887
0.193587
0.201514
0.209692
0.218146
0.226898
0.235972
0.24539
0.255176
0.26535
0.275934
0.286951
0.298423
0.310372
0.32282
0.335792
0.34931
0.363399
0.378085
0.393391
0.409345
0.425974
0.443304
0.461365
0.480184
0.499791
0.520214
0.541484
0.563631
0.586684
0.610674
0.635629
0.661579
0.688552
0.716575
0.745675
0.775877
0.807203
0.839678
0.873322
0.908153
0.944188
0.981442
1.01993
1.05965
1.10063
1.14285
1.18633
1.23106
1.27703
1.32424
1.37268
1.42233
1.47316
1.52517
1.57831
1.63256
1.6879
1.74426
1.80163
1.85995
1.91917
1.97925
2.04012
2.10173
2.16402
2.22691
2.29035
2.35426
2.41857
2.48319
2.54805
2.61306
2.67812
2.74316
2.80808
2.87278
2.93717
3.00115
3.06461
3.12747
3.18961
3.25093
3.31134
3.37074
3.42903
3.48612
3.54191
3.59631
3.64924
3.7006
3.7503
3.79827
3.84442
3.88866
3.93094
3.97116
4.00926
4.04517
4.07882
4.11015
4.13911
4.16564
4.18967
4.21118
4.23011
4.24644
4.26012
4.27114
4.27947
4.28509
4.28798
4.28813
4.28559
4.28037
4.27257
4.26222
4.24938
4.23411
4.21647
4.19654
4.1744
4.15013
4.12384
4.09561
4.06556
4.03378
4.00038
3.96546
3.92915
3.89164
3.85311
3.8137
3.77347
3.73245
3.6907
3.64831
3.60539
3.56209
3.51854
3.4749
3.43132
3.38796
3.34496
3.30248
3.26067
3.21964
3.17953
3.14044
3.10249
3.06577
3.03038
2.99642
2.96402
2.93335
2.90458
2.87815
2.85371
2.82608
0.0269987
0.0324367
0.0421416
0.0534235
0.0646699
0.07527
0.0851353
0.0943496
0.103031
0.11129
0.119219
0.126898
0.134394
0.141767
0.149068
0.156344
0.163638
0.170989
0.178434
0.186007
0.19374
0.201665
0.20981
0.218204
0.226872
0.235842
0.245137
0.254783
0.264804
0.275222
0.286062
0.297347
0.309101
0.321347
0.33411
0.347415
0.361287
0.375752
0.390836
0.406567
0.422973
0.440083
0.457925
0.47653
0.495928
0.516151
0.53723
0.559196
0.582083
0.605922
0.630745
0.656584
0.683471
0.711436
0.74051
0.770722
0.802099
0.834669
0.868456
0.903486
0.939779
0.977356
1.01623
1.05643
1.09796
1.14082
1.18504
1.2306
1.27752
1.32579
1.37541
1.42636
1.47863
1.53221
1.58708
1.64321
1.70056
1.75912
1.81884
1.87967
1.94158
2.00452
2.06842
2.13324
2.19891
2.26537
2.33254
2.40036
2.46875
2.53763
2.60692
2.67653
2.74636
2.81633
2.88634
2.95628
3.02606
3.09557
3.1647
3.23334
3.30139
3.36873
3.43525
3.50084
3.5654
3.62881
3.69096
3.75176
3.8111
3.86888
3.92501
3.97938
4.03192
4.08252
4.13111
4.17759
4.2219
4.26395
4.30366
4.34098
4.37582
4.40814
4.43786
4.46494
4.48933
4.51097
4.52982
4.54586
4.55905
4.56937
4.5768
4.58132
4.58292
4.58161
4.57737
4.57028
4.56045
4.54791
4.53273
4.51496
4.49468
4.47197
4.44692
4.41962
4.39018
4.35869
4.32526
4.29001
4.25302
4.21441
4.17429
4.13283
4.09021
4.04657
4.00203
3.95665
3.91054
3.86379
3.81653
3.76891
3.72106
3.67316
3.62537
3.57785
3.53076
3.48426
3.43851
3.39364
3.3498
3.30709
3.26564
3.22555
3.18692
3.14989
3.11457
3.08113
3.04975
3.02079
2.99384
2.96472
0.0333391
0.0371999
0.0470738
0.0592261
0.0714488
0.0829156
0.0935096
0.103335
0.112535
0.12124
0.129561
0.137592
0.145411
0.153086
0.160677
0.168238
0.175817
0.18346
0.191205
0.199092
0.207155
0.215429
0.223943
0.232729
0.241813
0.251224
0.260988
0.27113
0.281676
0.29265
0.304078
0.315984
0.328394
0.341334
0.354828
0.368905
0.383591
0.398914
0.414903
0.431587
0.448998
0.467165
0.486121
0.505898
0.526528
0.548046
0.570486
0.593881
0.618266
0.643676
0.670145
0.697707
0.726396
0.756244
0.787285
0.819549
0.853067
0.887867
0.923977
0.961422
1.00023
1.04041
1.082
1.125
1.16943
1.2153
1.26263
1.31141
1.36164
1.41333
1.46647
1.52105
1.57704
1.63445
1.69324
1.75338
1.81484
1.87759
1.94159
2.00678
2.07313
2.14057
2.20904
2.27848
2.34882
2.42
2.49193
2.56453
2.63772
2.71141
2.78551
2.85992
2.93455
3.00928
3.08402
3.15864
3.23304
3.30711
3.38072
3.45375
3.52609
3.59761
3.6682
3.73772
3.80607
3.87313
3.93877
4.0029
4.0654
4.12615
4.18507
4.24205
4.29699
4.3498
4.40039
4.44867
4.49457
4.53799
4.57888
4.61716
4.65277
4.68563
4.7157
4.74292
4.76724
4.78861
4.80701
4.82239
4.83473
4.84402
4.85024
4.85337
4.8534
4.85036
4.84415
4.83501
4.82298
4.80811
4.79045
4.77009
4.7471
4.72157
4.69359
4.66326
4.63068
4.59597
4.55924
4.52059
4.48013
4.43796
4.3942
4.349
4.30253
4.25496
4.20641
4.157
4.10684
4.05605
4.00477
3.95313
3.90131
3.84946
3.79777
3.74639
3.69552
3.6453
3.59591
3.54749
3.50019
3.45413
3.40944
3.36624
3.32465
3.28478
3.24677
3.21079
3.17699
3.14568
3.11641
3.08581
0.04094
0.0422202
0.0517203
0.0644733
0.0775273
0.0897529
0.100975
0.111313
0.120935
0.129993
0.138616
0.146912
0.15497
0.162868
0.170673
0.178445
0.186239
0.194103
0.202082
0.210217
0.218545
0.227103
0.235922
0.245034
0.254469
0.264255
0.27442
0.284991
0.295994
0.307454
0.319399
0.331855
0.344848
0.358405
0.372555
0.387325
0.402745
0.418846
0.435657
0.453211
0.47154
0.490677
0.510658
0.531515
0.553286
0.576006
0.599711
0.624439
0.650225
0.677108
0.705125
0.734311
0.764703
0.796337
0.829248
0.863469
0.899032
0.935969
0.97431
1.01408
1.05531
1.09802
1.14223
1.18795
1.23521
1.28402
1.33438
1.38631
1.43979
1.49483
1.55142
1.60955
1.66921
1.73036
1.793
1.85708
1.92257
1.98943
2.05761
2.12707
2.19774
2.26956
2.34247
2.4164
2.49128
2.56701
2.64351
2.7207
2.79849
2.87677
2.95545
3.03441
3.11356
3.19277
3.27192
3.3509
3.42959
3.50785
3.58556
3.66258
3.7388
3.81407
3.88827
3.96126
4.03293
4.10314
4.17178
4.23872
4.30384
4.36705
4.42822
4.48725
4.54405
4.59851
4.65054
4.70006
4.747
4.79126
4.83277
4.87148
4.90731
4.9402
4.9701
4.99696
5.02074
5.04138
5.05887
5.07317
5.08427
5.09216
5.09681
5.09822
5.09643
5.09128
5.08294
5.07154
5.05714
5.0398
5.01957
4.99655
4.97081
4.94244
4.91155
4.87824
4.84262
4.8048
4.7649
4.72301
4.67927
4.63376
4.58661
4.53795
4.48797
4.43681
4.38464
4.33158
4.27777
4.22334
4.16842
4.11318
4.05778
4.00239
3.94718
3.89235
3.83808
3.78453
3.73188
3.68028
3.62989
3.58084
3.53327
3.48731
3.44307
3.4007
3.36032
3.3221
3.28616
3.25277
3.22147
3.18956
0.0496201
0.0473549
0.0559547
0.0690326
0.0827643
0.095636
0.107383
0.118135
0.128082
0.1374
0.146238
0.154715
0.162935
0.170982
0.178932
0.186852
0.194799
0.202826
0.210981
0.219308
0.227845
0.236631
0.245699
0.255082
0.264811
0.274915
0.285422
0.296361
0.307759
0.319644
0.332042
0.344983
0.358493
0.372602
0.387339
0.402736
0.418823
0.435632
0.453196
0.47155
0.490729
0.510769
0.531705
0.553577
0.576421
0.600277
0.625184
0.651182
0.678311
0.70661
0.736119
0.766878
0.798925
0.8323
0.867039
0.903179
0.940755
0.9798
1.02035
1.06242
1.10606
1.15127
1.19809
1.24654
1.29662
1.34836
1.40175
1.4568
1.51352
1.5719
1.63193
1.6936
1.75688
1.82175
1.88819
1.95615
2.0256
2.09649
2.16876
2.24237
2.31724
2.39331
2.47049
2.54873
2.62792
2.70798
2.78881
2.87032
2.95241
3.03496
3.11787
3.20102
3.28429
3.36756
3.4507
3.53357
3.61605
3.698
3.77927
3.85974
3.93926
4.01768
4.09489
4.17073
4.24507
4.31778
4.38874
4.45782
4.52489
4.58985
4.65258
4.71298
4.77093
4.82635
4.87914
4.92922
4.9765
5.02093
5.06241
5.10089
5.13631
5.16862
5.19776
5.22369
5.24636
5.26575
5.28182
5.29457
5.30398
5.31007
5.31278
5.31216
5.30813
5.30062
5.28992
5.27608
5.25917
5.23923
5.21636
5.19064
5.16214
5.13098
5.09726
5.06107
5.02255
4.9818
4.93893
4.89406
4.84729
4.79875
4.74854
4.6968
4.6437
4.5894
4.53406
4.47783
4.42084
4.36325
4.30519
4.24683
4.18834
4.1299
4.07168
4.01388
3.95669
3.90029
3.84485
3.79054
3.73752
3.68594
3.63593
3.58764
3.54119
3.49673
3.45438
3.4143
3.37659
3.3415
3.30856
3.27567
0.0593393
0.0525617
0.0597236
0.0728277
0.0870648
0.100458
0.11262
0.123681
0.133855
0.143342
0.152307
0.160888
0.169196
0.177327
0.185363
0.193373
0.201421
0.209562
0.217846
0.226318
0.235019
0.243987
0.253257
0.262863
0.272837
0.283208
0.294008
0.305264
0.317006
0.329262
0.342061
0.355434
0.36941
0.384019
0.399294
0.415268
0.431973
0.449445
0.46772
0.486834
0.506825
0.527733
0.549596
0.572455
0.596352
0.621328
0.647427
0.67469
0.703162
0.732884
0.7639
0.796253
0.829984
0.865135
0.901745
0.939853
0.979496
1.02071
1.06353
1.10798
1.15409
1.20189
1.25141
1.30264
1.35563
1.41036
1.46685
1.52511
1.58512
1.64688
1.71038
1.7756
1.84251
1.91109
1.9813
2.0531
2.12643
2.20125
2.2775
2.3551
2.43399
2.51409
2.59532
2.67759
2.7608
2.84486
2.92966
3.01509
3.10104
3.1874
3.27405
3.36086
3.4477
3.53444
3.62094
3.70706
3.79266
3.87759
3.9617
4.04486
4.12691
4.2077
4.2871
4.36496
4.44114
4.51551
4.58793
4.65829
4.72645
4.7923
4.85572
4.91662
4.97487
5.0304
5.08311
5.13292
5.17975
5.22353
5.26421
5.30171
5.336
5.36701
5.3947
5.41904
5.44
5.45754
5.47164
5.48231
5.48956
5.49341
5.49377
5.49078
5.48403
5.474
5.46072
5.44426
5.4247
5.40209
5.37653
5.34811
5.31691
5.28305
5.24662
5.20774
5.16653
5.12309
5.07755
5.03001
4.98059
4.9294
4.87656
4.82221
4.76648
4.70956
4.6516
4.59275
4.53316
4.47298
4.41237
4.35148
4.29048
4.22957
4.16893
4.10875
4.04922
3.99055
3.9329
3.87644
3.82136
3.76779
3.71589
3.6658
3.61766
3.57161
3.52779
3.48633
3.44734
3.41101
3.37687
3.34348
0.070128
0.057846
0.0630149
0.0758206
0.0903684
0.104143
0.1166
0.127859
0.13816
0.147722
0.156733
0.165342
0.173674
0.18183
0.189899
0.197954
0.206061
0.214277
0.222653
0.231234
0.240063
0.249177
0.258613
0.268405
0.278585
0.289187
0.30024
0.311776
0.323825
0.336418
0.349585
0.363359
0.377772
0.392858
0.40865
0.425186
0.4425
0.460632
0.479619
0.499503
0.520325
0.542126
0.56495
0.588842
0.613846
0.640007
0.667373
0.695989
0.725902
0.757158
0.789803
0.823882
0.85944
0.89652
0.935163
0.975411
1.0173
1.06087
1.10615
1.15317
1.20196
1.25254
1.30493
1.35915
1.41521
1.47311
1.53285
1.59444
1.65787
1.72311
1.79016
1.85898
1.92955
2.00182
2.07576
2.15131
2.22841
2.30701
2.38703
2.46839
2.55102
2.63484
2.71974
2.80563
2.89241
2.97997
3.06819
3.15696
3.24616
3.33566
3.42534
3.51507
3.6047
3.69409
3.7831
3.87159
3.95939
4.04636
4.13236
4.21721
4.30078
4.38291
4.46346
4.54229
4.61925
4.69421
4.76703
4.83759
4.90577
4.97145
5.03452
5.09488
5.15242
5.20705
5.25868
5.30725
5.35269
5.39492
5.4339
5.46957
5.50189
5.53081
5.5563
5.57834
5.5969
5.61195
5.62348
5.63151
5.63607
5.63718
5.63489
5.62886
5.61932
5.6065
5.59044
5.57122
5.54891
5.52359
5.49535
5.46428
5.43049
5.39408
5.35515
5.31383
5.27022
5.22444
5.1766
5.12682
5.0752
5.02186
4.96691
4.91049
4.85273
4.7938
4.73385
4.67304
4.6115
4.54941
4.4869
4.42416
4.36134
4.29865
4.23627
4.17439
4.11323
4.05297
3.99379
3.93587
3.87939
3.8245
3.77136
3.72011
3.6709
3.62388
3.57918
3.53693
3.4972
3.4602
3.42543
3.39212
0.0821182
0.0632659
0.0658528
0.0780041
0.0926423
0.106641
0.11926
0.130599
0.14092
0.150467
0.159443
0.168013
0.176312
0.184446
0.192509
0.200576
0.208713
0.216978
0.225423
0.234091
0.243026
0.252266
0.261846
0.271801
0.282167
0.292979
0.304269
0.316072
0.328419
0.341344
0.354881
0.369065
0.383932
0.399519
0.415864
0.433007
0.450988
0.46985
0.489634
0.510386
0.532151
0.554975
0.578906
0.603993
0.630284
0.657829
0.686679
0.716882
0.748489
0.781548
0.816108
0.852215
0.889916
0.929254
0.970271
1.01301
1.0575
1.10378
1.15188
1.20182
1.25363
1.30733
1.36293
1.42043
1.47985
1.54118
1.60441
1.66953
1.73653
1.80538
1.87605
1.94851
2.02272
2.09862
2.17616
2.25529
2.33593
2.41801
2.50146
2.58618
2.67209
2.75909
2.84708
2.93596
3.02561
3.11592
3.20677
3.29803
3.38957
3.48126
3.57298
3.66459
3.75593
3.84687
3.93724
4.02691
4.11571
4.2035
4.29011
4.37539
4.45919
4.54136
4.62176
4.70025
4.77668
4.85092
4.92284
4.99232
5.05924
5.1235
5.18499
5.24359
5.29923
5.3518
5.40123
5.44747
5.49044
5.53009
5.56638
5.59927
5.62872
5.65469
5.67717
5.69613
5.71157
5.72347
5.73179
5.73644
5.73759
5.73543
5.72951
5.72008
5.70733
5.69134
5.67219
5.64997
5.62475
5.59662
5.56568
5.53202
5.49575
5.45698
5.41581
5.37236
5.32673
5.27904
5.22939
5.1779
5.12467
5.06981
5.01343
4.95565
4.8966
4.83643
4.7753
4.71337
4.65077
4.58763
4.52412
4.4604
4.39664
4.33303
4.26978
4.20707
4.14512
4.08412
4.02425
3.96569
3.90862
3.85321
3.79961
3.74799
3.6985
3.65128
3.60646
3.56416
3.52445
3.48751
3.45281
3.42034
0.0960535
0.0691269
0.0683809
0.0794438
0.0939163
0.107964
0.120598
0.131888
0.142117
0.151554
0.16042
0.168893
0.177113
0.185193
0.193227
0.20129
0.209449
0.21776
0.226274
0.235035
0.244084
0.253459
0.263195
0.273322
0.283887
0.294931
0.30649
0.318601
0.331299
0.344623
0.358611
0.373304
0.38874
0.404964
0.422019
0.439949
0.458802
0.478625
0.499466
0.521373
0.544399
0.568593
0.594009
0.620701
0.64872
0.678122
0.708958
0.741281
0.775141
0.81059
0.847673
0.886438
0.926927
0.969181
1.01324
1.05913
1.10689
1.15654
1.20811
1.26161
1.31705
1.37444
1.43378
1.49507
1.5583
1.62345
1.6905
1.75944
1.83022
1.90281
1.97718
2.05326
2.13102
2.21038
2.29128
2.37365
2.45741
2.54248
2.62877
2.71618
2.80462
2.89399
2.98418
3.07508
3.16657
3.25852
3.35083
3.44335
3.53595
3.62851
3.72088
3.81293
3.90452
3.99549
4.08569
4.17497
4.26317
4.35016
4.43576
4.51982
4.6022
4.68275
4.76135
4.83785
4.91213
4.98404
5.05345
5.12026
5.18438
5.2457
5.3041
5.35951
5.41182
5.46096
5.50683
5.54919
5.58813
5.62367
5.6558
5.68448
5.70969
5.7314
5.74961
5.7643
5.77549
5.78323
5.78745
5.78841
5.78622
5.78033
5.77096
5.75833
5.74249
5.72353
5.70154
5.6766
5.64881
5.61825
5.58503
5.54924
5.51099
5.47038
5.42752
5.38252
5.33549
5.28653
5.23574
5.18324
5.12911
5.07346
5.01639
4.95802
4.89846
4.83785
4.77634
4.7141
4.6512
4.58781
4.52408
4.46018
4.39628
4.33258
4.26927
4.20655
4.14464
4.08372
4.02398
3.9656
3.90877
3.85364
3.80038
3.74915
3.70012
3.65343
3.60921
3.56757
3.52856
3.49237
3.45839
3.42746
0.112028
0.0754027
0.070587
0.0800722
0.0940485
0.107934
0.12044
0.131583
0.141654
0.150938
0.15967
0.168034
0.176173
0.184203
0.192214
0.200283
0.208474
0.216845
0.225444
0.234317
0.243506
0.25305
0.262987
0.273348
0.284198
0.295571
0.307515
0.32007
0.333282
0.347192
0.361847
0.377294
0.393582
0.410759
0.428879
0.447996
0.468163
0.489435
0.511866
0.53551
0.560423
0.586659
0.614277