/*--------------------------------*- C++ -*----------------------------------*\
| =========                 |                                                 |
| \\      /  F ield         | OpenFOAM: The Open Source CFD Toolbox           |
|  \\    /   O peration     | Version:  2412                                  |
|   \\  /    A nd           | Website:  www.openfoam.com                      |
|    \\/     M anipulation  |                                                 |
\*---------------------------------------------------------------------------*/
FoamFile
{
    version     2.0;
    format      ascii;
    arch        "LSB;label=32;scalar=64";
    class       volScalarField;
    location    "200";
    object      nut;
}
// * * * * * * * * * * * * * * * * * * * * * * * * * * * * * * * * * * * * * //

dimensions      [0 2 -1 0 0 0 0];

internalField   nonuniform List<scalar> 
12225
(
0.000145308
0.000151314
0.000137007
0.000119545
0.000108943
0.000102195
9.71806e-05
9.3266e-05
9.02425e-05
8.7905e-05
8.60809e-05
8.46582e-05
8.35697e-05
8.2774e-05
8.22546e-05
8.20003e-05
8.21062e-05
8.07171e-05
4.36933e-05
7.95043e-05
8.38742e-05
8.5992e-05
8.08031e-05
7.59941e-05
7.20133e-05
6.88095e-05
6.62087e-05
6.40798e-05
6.23253e-05
6.08652e-05
5.96521e-05
5.86194e-05
5.7736e-05
5.7072e-05
5.69464e-05
5.29876e-05
1.35547e-05
2.9279e-05
4.28621e-05
4.80549e-05
5.44202e-05
5.74842e-05
5.84585e-05
5.85875e-05
5.82689e-05
5.77047e-05
5.70248e-05
5.63066e-05
5.56103e-05
5.48789e-05
5.42257e-05
5.33706e-05
5.3284e-05
5.07235e-05
0.000125318
1.47919e-05
2.0133e-05
2.49873e-05
2.96165e-05
3.40445e-05
3.78623e-05
4.09112e-05
4.33893e-05
4.52985e-05
4.68152e-05
4.80558e-05
4.90022e-05
4.96555e-05
5.01897e-05
5.03994e-05
5.07629e-05
5.0392e-05
0.000318576
4.69821e-05
2.48175e-05
2.15792e-05
2.15937e-05
2.29925e-05
2.48235e-05
2.68627e-05
2.89161e-05
3.09139e-05
3.2767e-05
3.45649e-05
3.61381e-05
3.76698e-05
3.88954e-05
4.0097e-05
4.12793e-05
4.17433e-05
0.002409
0.000227421
9.87354e-05
5.75082e-05
4.28241e-05
3.62864e-05
3.30081e-05
3.13745e-05
3.06229e-05
3.0355e-05
3.07119e-05
3.11099e-05
3.1702e-05
3.25072e-05
3.32032e-05
3.41072e-05
3.51083e-05
3.55346e-05
0.004657
0.000589728
0.000358544
0.000200165
0.00013549
0.000102644
8.41215e-05
7.26119e-05
6.54801e-05
6.03934e-05
5.71644e-05
5.44537e-05
5.26456e-05
5.1106e-05
5.04042e-05
4.94295e-05
4.98609e-05
4.87298e-05
0.00118526
0.000817642
0.000687139
0.000488995
0.000358217
0.000276794
0.000225389
0.000190501
0.000166937
0.000148842
0.00013645
0.000126355
0.000119454
0.000113182
0.000109564
0.000105294
0.000104405
0.00010036
0.000909687
0.000874876
0.000842584
0.00074246
0.000629494
0.000532473
0.000456866
0.000397762
0.000354369
0.00031949
0.000293936
0.000272216
0.000256858
0.000242443
0.000233364
0.000223227
0.000218689
0.000210007
0.00086154
0.00086664
0.000867517
0.000844868
0.000799624
0.000739005
0.00067929
0.000623623
0.00057608
0.000533768
0.000500297
0.00046983
0.000447211
0.000425035
0.000410389
0.000393595
0.000385138
0.00037126
0.000854879
0.000859181
0.000862673
0.000864207
0.000856722
0.000836307
0.000809864
0.000777641
0.000746285
0.000714263
0.00068616
0.000658083
0.000635866
0.000612645
0.000596376
0.000577038
0.000566518
0.000548754
0.000852584
0.000856308
0.000858457
0.000861791
0.000864294
0.000861016
0.000853701
0.000841173
0.000826614
0.000809274
0.00079269
0.000774145
0.000758329
0.000740628
0.000727479
0.000711295
0.000701671
0.000685952
0.000852079
0.000853521
0.000856207
0.000858781
0.00086111
0.000863017
0.00086394
0.000861855
0.000858195
0.00085209
0.000845361
0.000836978
0.000829177
0.000819451
0.000811641
0.000801567
0.000794871
0.000784154
0.000851997
0.000852401
0.000853775
0.000855651
0.000857767
0.000859919
0.000861772
0.000863226
0.000863825
0.00086381
0.000862954
0.000861239
0.000859321
0.000856303
0.000853519
0.000849787
0.000846577
0.000842184
0.000851902
0.000851936
0.000852523
0.000853584
0.000854892
0.000856352
0.000857874
0.000859349
0.000860733
0.000861851
0.000862839
0.000863406
0.000863896
0.0008639
0.000863909
0.000863376
0.000863026
0.000862001
0.000851829
0.000851655
0.000851852
0.000852393
0.000853154
0.000854019
0.000854969
0.000855919
0.000856886
0.00085777
0.000858639
0.000859377
0.000860093
0.000860647
0.000861181
0.000861543
0.000861877
0.000862094
0.000851788
0.000851492
0.000851475
0.000851729
0.000852166
0.000852687
0.000853259
0.000853832
0.000854402
0.000854927
0.000855427
0.000855871
0.000856285
0.000856642
0.000856967
0.000857249
0.000857472
0.00085772
0.000851773
0.000851429
0.000851314
0.000851432
0.000851704
0.000852052
0.00085243
0.000852808
0.000853164
0.000853485
0.000853767
0.00085401
0.000854214
0.000854385
0.000854519
0.000854633
0.00085471
0.000854785
0.000851787
0.000851468
0.000851368
0.000851494
0.000851759
0.000852093
0.000852446
0.000852796
0.000853113
0.000853397
0.000853629
0.000853825
0.000853969
0.000854084
0.00085415
0.000854199
0.000854201
0.000854195
0.000851836
0.000851645
0.000851716
0.00085205
0.000852515
0.000853054
0.00085357
0.000854079
0.000854489
0.000854835
0.000855034
0.000855158
0.000855117
0.000855019
0.000854732
0.000854433
0.000853903
0.000853457
0.000851934
0.000852011
0.000852418
0.000853105
0.000853898
0.000854588
0.000854944
0.0008551
0.000854657
0.000853857
0.000852378
0.000850638
0.000848287
0.000845712
0.000842567
0.000839332
0.000835618
0.000832184
0.000852285
0.000853131
0.000853325
0.00085375
0.000853403
0.000851244
0.000847402
0.000841805
0.000833325
0.000823825
0.000812282
0.000800691
0.000787548
0.000775414
0.000761912
0.000750314
0.00073692
0.000726587
0.000855943
0.000857854
0.000845892
0.000840387
0.000826517
0.00080441
0.000773635
0.000740377
0.000704962
0.000672151
0.000639589
0.000611413
0.000583582
0.000560592
0.000537159
0.000518917
0.000499013
0.000484916
0.00086998
0.000882197
0.000789218
0.000746491
0.000663444
0.000580349
0.000506464
0.000447428
0.000398877
0.000361275
0.000329725
0.00030507
0.000282847
0.000265808
0.000249525
0.000237733
0.000225147
0.000216905
0.00106203
0.000899543
0.000520684
0.000399391
0.000286052
0.000219025
0.000176969
0.000149633
0.000130285
0.000116577
0.000105969
9.80831e-05
9.18119e-05
8.6977e-05
8.28373e-05
7.94921e-05
7.65027e-05
7.42395e-05
0.00183922
0.000384008
0.000164883
9.07675e-05
6.44903e-05
5.21371e-05
4.53091e-05
4.1298e-05
3.87789e-05
3.73724e-05
3.63374e-05
3.5915e-05
3.5653e-05
3.58197e-05
3.60481e-05
3.64253e-05
3.69553e-05
3.75834e-05
0.000363206
5.36969e-05
2.79916e-05
2.46931e-05
2.4956e-05
2.67177e-05
2.88455e-05
3.11548e-05
3.37012e-05
3.61366e-05
3.86737e-05
4.10129e-05
4.34919e-05
4.56449e-05
4.80647e-05
5.00899e-05
5.23259e-05
5.42873e-05
0.000290121
1.99442e-05
3.07362e-05
3.99773e-05
4.69717e-05
5.2863e-05
5.80547e-05
6.23582e-05
6.5632e-05
6.84776e-05
7.08654e-05
7.27542e-05
7.43665e-05
7.566e-05
7.67948e-05
7.7695e-05
7.85125e-05
7.91549e-05
3.30902e-05
7.23573e-05
9.41181e-05
9.87473e-05
0.000102899
0.000102595
0.000100789
9.8434e-05
9.59387e-05
9.3533e-05
9.13326e-05
8.93448e-05
8.75877e-05
8.60225e-05
8.46511e-05
8.34203e-05
8.23437e-05
8.13606e-05
0.000153723
0.000186735
0.000180003
0.000163415
0.000150229
0.00014121
0.00013444
0.000128882
0.000124213
0.000120279
0.000116944
0.000114087
0.000111618
0.000109465
0.000107571
0.000105893
0.000104387
0.000103054
5.00011e-06
1.12873e-05
1.20612e-05
1.29706e-05
1.39467e-05
1.49269e-05
1.58652e-05
1.67311e-05
1.75079e-05
1.81891e-05
1.87761e-05
1.92752e-05
1.96962e-05
2.00519e-05
2.03579e-05
2.06339e-05
2.09076e-05
2.12235e-05
2.16606e-05
2.22915e-05
2.30212e-05
2.38004e-05
2.46055e-05
2.54256e-05
2.62563e-05
2.70964e-05
2.79466e-05
2.88082e-05
2.96831e-05
3.05731e-05
3.14803e-05
3.24065e-05
3.33536e-05
3.43236e-05
3.53181e-05
3.63389e-05
3.73874e-05
3.84645e-05
3.95715e-05
4.07094e-05
4.18794e-05
4.30825e-05
4.43196e-05
4.55919e-05
4.69e-05
4.82449e-05
4.96272e-05
5.10475e-05
5.25063e-05
5.40038e-05
5.55401e-05
5.71151e-05
5.87284e-05
6.0379e-05
6.20658e-05
6.37875e-05
6.55443e-05
6.7336e-05
6.91618e-05
7.10207e-05
7.29112e-05
7.48317e-05
7.67805e-05
7.87557e-05
8.07554e-05
8.27774e-05
8.48195e-05
8.68791e-05
8.8954e-05
9.10414e-05
9.3139e-05
9.52439e-05
9.73532e-05
9.94636e-05
0.000101571
0.000103673
0.000105766
0.000107848
0.000109914
0.000111963
0.00011399
0.000115994
0.000117971
0.000119918
0.000121832
0.000123711
0.000125551
0.000127349
0.000129102
0.000130809
0.000132468
0.000134076
0.000135629
0.000137127
0.000138566
0.000139943
0.000141258
0.000142508
0.00014369
0.000144804
0.000145846
0.000146817
0.000147713
0.000148533
0.000149274
0.000149936
0.000150516
0.000151013
0.000151424
0.000151745
0.000151975
0.000152114
0.00015218
0.000152143
0.000152025
0.000151849
0.000151578
0.000151229
0.000150796
0.000150283
0.00014969
0.000149018
0.000148267
0.000147438
0.000146533
0.000145552
0.000144497
0.000143371
0.000142174
0.000140909
0.000139576
0.000138178
0.000136716
0.000135187
0.000133607
0.00013197
0.000130284
0.00012855
0.000126772
0.000124952
0.000123095
0.000121203
0.000119281
0.000117332
0.00011536
0.000113372
0.00011137
0.000109361
0.000107351
0.000105347
0.000103353
0.000101457
0.000100941
0.000101737
0.000102635
0.000103502
0.000104339
0.000105147
0.000105928
0.000106681
0.000107408
0.000108106
0.000108775
0.000109415
0.000110025
0.000110603
0.000111149
0.000111663
0.000112143
0.000112588
0.000112996
0.000113367
0.000113697
0.000113978
0.000114201
0.000114337
0.000114374
0.000114105
0.000113781
0.000111092
5.46756e-06
8.60949e-06
1.32577e-05
1.88248e-05
2.4586e-05
3.00733e-05
3.5143e-05
3.97976e-05
4.4105e-05
4.81476e-05
5.19918e-05
5.5702e-05
5.93249e-05
6.28801e-05
6.63568e-05
6.9711e-05
7.28615e-05
7.56956e-05
7.81022e-05
8.00831e-05
8.17569e-05
8.32393e-05
8.46129e-05
8.59308e-05
8.7225e-05
8.85145e-05
8.98106e-05
9.112e-05
9.24466e-05
9.37929e-05
9.51602e-05
9.65497e-05
9.79627e-05
9.94011e-05
0.00010087
0.000102379
0.000103928
0.00010551
0.000107123
0.000108767
0.000110444
0.000112156
0.000113903
0.000115687
0.000117511
0.000119378
0.000121289
0.000123248
0.000125256
0.000127318
0.000129434
0.000131607
0.000133835
0.000136117
0.000138439
0.000140772
0.000143126
0.000145533
0.000147999
0.000150524
0.000153112
0.000155765
0.000158485
0.000161275
0.000164138
0.000167077
0.000170094
0.000173194
0.00017638
0.000179658
0.000183035
0.000186521
0.000190133
0.000193853
0.000197664
0.00020157
0.000205571
0.000209665
0.000213864
0.000218182
0.000222615
0.000227163
0.00023183
0.000236618
0.000241531
0.000246571
0.000251742
0.000257048
0.000262489
0.00026807
0.00027379
0.000279652
0.000285657
0.000291809
0.000298108
0.000304555
0.000311153
0.000317902
0.000324803
0.000331856
0.000339064
0.000346424
0.000353931
0.000361584
0.000369384
0.000377337
0.000385458
0.000393817
0.00040228
0.000410759
0.000419076
0.000427315
0.00043572
0.000444225
0.000452796
0.000461505
0.000470319
0.00047925
0.000488309
0.000497526
0.000506819
0.000516216
0.000525708
0.000535297
0.000544981
0.00055479
0.000564671
0.000574653
0.000584725
0.000594871
0.000605092
0.000615396
0.000625717
0.000635955
0.000646288
0.000656655
0.000667065
0.000677495
0.000687936
0.000698383
0.000708828
0.000719263
0.000729676
0.000740053
0.000750376
0.00076062
0.00077075
0.000780717
0.00079044
0.000799761
0.000808149
0.000812641
0.000802648
0.000785827
0.000766893
0.000747624
0.000728401
0.000709366
0.000690596
0.000672137
0.000654039
0.000636347
0.000619097
0.000602321
0.00058605
0.00057031
0.000555121
0.000540501
0.000526458
0.000512999
0.00050013
0.000487875
0.000476223
0.000465158
0.000454645
0.00044473
0.0004352
0.000426814
0.000416773
0.000396033
6.27538e-06
9.94734e-06
1.69853e-05
2.76866e-05
4.10549e-05
5.54827e-05
6.96555e-05
8.28996e-05
9.50246e-05
0.000106088
0.000116241
0.000125644
0.000134422
0.000142649
0.00015035
0.0001575
0.000164045
0.000169924
0.000175111
0.000179655
0.000183682
0.000187334
0.000190733
0.000193971
0.000197115
0.000200208
0.000203282
0.000206356
0.000209445
0.000212557
0.0002157
0.000218876
0.000222089
0.000225341
0.00022863
0.000231951
0.000235312
0.000238727
0.000242202
0.000245727
0.000249312
0.000252962
0.000256682
0.000260479
0.000264359
0.00026833
0.000272401
0.000276583
0.000280888
0.000285326
0.000289909
0.000294648
0.000299555
0.00030465
0.000309961
0.00031554
0.000321375
0.000327437
0.000333729
0.000340264
0.000347052
0.000354104
0.000361433
0.000369048
0.000376962
0.000385184
0.000393725
0.000402596
0.000411806
0.000421365
0.000431281
0.000441561
0.000452207
0.000463213
0.000474563
0.000486293
0.000498417
0.000510943
0.000523887
0.000537265
0.000551061
0.00056525
0.00057983
0.000594801
0.000610159
0.000625899
0.000642017
0.000658507
0.00067536
0.000692567
0.000710121
0.000728012
0.000746226
0.00076475
0.00078357
0.000802672
0.00082204
0.000841658
0.000861509
0.000881577
0.00090185
0.000922322
0.000942952
0.000963701
0.000984542
0.00100546
0.00102628
0.00104683
0.00106726
0.00108753
0.00110754
0.00112739
0.00114724
0.001167
0.00118665
0.00120622
0.00122568
0.00124502
0.00126423
0.00128334
0.00130221
0.0013209
0.00133937
0.0013576
0.00137552
0.00139338
0.00141076
0.00142787
0.00144473
0.00146128
0.0014775
0.00149333
0.00150877
0.00152376
0.00153814
0.00155217
0.00156584
0.00157907
0.00159184
0.00160415
0.001616
0.00162737
0.00163825
0.00164863
0.0016585
0.00166781
0.00167654
0.00168462
0.00169194
0.0016982
0.00170256
0.00170185
0.00168815
0.0016655
0.00163887
0.00161026
0.00158082
0.00155094
0.00152081
0.00149055
0.00146031
0.00143021
0.00140034
0.00137079
0.00134165
0.00131299
0.00128489
0.00125741
0.0012306
0.0012045
0.00117917
0.00115463
0.00113092
0.001108
0.00108579
0.00106432
0.00104316
0.00102338
0.00100178
0.000956779
7.11396e-06
1.18203e-05
2.1789e-05
3.82876e-05
6.02746e-05
8.49941e-05
0.000109788
0.000133056
0.000154171
0.00017307
0.000189957
0.000205113
0.000218803
0.000231237
0.00024256
0.000252881
0.000262276
0.000270811
0.000278564
0.000285637
0.000292154
0.000298244
0.000304023
0.000309586
0.000315004
0.000320328
0.00032561
0.000330885
0.000336176
0.000341503
0.00034688
0.000352319
0.00035783
0.000363424
0.00036911
0.000374901
0.000380816
0.000386885
0.000393152
0.000399592
0.000406205
0.000412998
0.000419985
0.000427178
0.00043459
0.000442238
0.000450141
0.000458327
0.000466822
0.00047565
0.000484835
0.000494396
0.000504342
0.000514673
0.000525432
0.000536646
0.000548325
0.000560476
0.000573114
0.000586254
0.000599913
0.000614106
0.000628847
0.000644148
0.000660021
0.000676475
0.000693519
0.000711159
0.000729399
0.000748244
0.000767694
0.000787749
0.000808405
0.000829657
0.000851499
0.000873931
0.000896951
0.000920547
0.000944711
0.000969429
0.000994679
0.00102044
0.00104668
0.0010734
0.00110056
0.00112815
0.00115614
0.0011845
0.00121321
0.00124225
0.00127158
0.00130118
0.00133101
0.00136105
0.00139126
0.00142161
0.00145206
0.00148258
0.00151314
0.0015437
0.00157422
0.00160465
0.00163496
0.00166509
0.00169495
0.00172443
0.00175354
0.00178223
0.00181053
0.0018384
0.00186583
0.00189283
0.00191946
0.00194569
0.00197146
0.0019968
0.00202167
0.00204604
0.00206991
0.00209327
0.00211604
0.00213824
0.00215984
0.00218083
0.00220122
0.00222104
0.00224005
0.00225832
0.00227608
0.00229313
0.0023095
0.00232503
0.00233979
0.00235363
0.0023664
0.0023786
0.00239001
0.0024006
0.00241039
0.00241938
0.00242757
0.00243495
0.00244154
0.00244732
0.00245229
0.00245644
0.00245973
0.00246212
0.00246349
0.00246353
0.00246144
0.00245495
0.00243974
0.00241716
0.00239012
0.00236041
0.00232913
0.00229682
0.00226379
0.00223037
0.0021967
0.0021628
0.00212879
0.00209477
0.00206086
0.00202717
0.00199381
0.00196086
0.00192839
0.00189645
0.00186516
0.00183456
0.00180464
0.00177539
0.00174664
0.00171839
0.00169011
0.00166287
0.00163416
0.00157486
7.80682e-06
1.38929e-05
2.73624e-05
5.02182e-05
8.08976e-05
0.000115309
0.000149661
0.000181695
0.000210545
0.000236131
0.000258727
0.000278716
0.000296487
0.000312386
0.000326709
0.000339689
0.000351517
0.000362359
0.000372364
0.000381676
0.000390433
0.000398762
0.000406777
0.000414576
0.000422243
0.000429847
0.00043743
0.000445032
0.000452685
0.000460417
0.000468253
0.000476215
0.000484323
0.000492598
0.000501057
0.00050972
0.000518603
0.000527717
0.000537061
0.000546659
0.000556546
0.000566747
0.000577283
0.000588174
0.000599438
0.000611085
0.00062312
0.000635608
0.000648592
0.00066211
0.000676205
0.000690942
0.000706427
0.000722519
0.000739246
0.000756624
0.000774666
0.000793395
0.000812827
0.000832977
0.000853857
0.000875476
0.000897842
0.00092096
0.000944834
0.000969465
0.000994849
0.00102098
0.00104786
0.00107547
0.00110381
0.00113285
0.00116259
0.00119301
0.00122409
0.00125581
0.00128815
0.00132109
0.00135459
0.00138863
0.00142318
0.0014582
0.00149366
0.00152954
0.00156578
0.00160236
0.00163924
0.00167639
0.00171377
0.00175134
0.00178906
0.0018269
0.00186481
0.00190275
0.00194069
0.00197857
0.00201636
0.00205402
0.0020915
0.00212875
0.00216573
0.00220238
0.00223861
0.00227439
0.00230966
0.0023444
0.00237858
0.00241217
0.00244516
0.00247753
0.00250927
0.00254037
0.00257083
0.00260063
0.00262974
0.00265814
0.0026858
0.00271271
0.00273885
0.00276418
0.00278868
0.00281233
0.00283511
0.002857
0.00287799
0.00289802
0.00291703
0.00293506
0.00295213
0.00296831
0.00298365
0.00299781
0.00301092
0.00302271
0.00303338
0.00304312
0.00305182
0.00305947
0.00306609
0.00307169
0.00307627
0.00307984
0.00308242
0.00308402
0.00308462
0.00308425
0.00308288
0.00308047
0.00307693
0.00307202
0.00306514
0.0030549
0.00303914
0.00301802
0.00299295
0.00296511
0.00293537
0.00290423
0.00287204
0.00283898
0.00280528
0.00277109
0.00273655
0.0027018
0.00266695
0.00263215
0.00259749
0.00256308
0.00252904
0.00249559
0.00246267
0.0024303
0.0023985
0.00236723
0.00233642
0.00230579
0.00227528
0.00224471
0.00221167
0.0021516
8.29531e-06
1.6144e-05
3.37268e-05
6.33648e-05
0.000102389
0.000145337
0.000187686
0.000226869
0.000261982
0.000292992
0.000320253
0.000344248
0.000365468
0.00038436
0.000401312
0.00041665
0.000430652
0.000443553
0.000455554
0.000466836
0.000477555
0.000487848
0.000497836
0.000507621
0.000517288
0.000526909
0.000536542
0.000546234
0.000556028
0.000565959
0.000576061
0.000586364
0.000596895
0.000607679
0.000618744
0.000630112
0.000641806
0.00065385
0.000666264
0.000679077
0.000692321
0.000706025
0.000720219
0.000734934
0.000750204
0.000766069
0.000782582
0.00079974
0.000817567
0.000836086
0.000855317
0.000875266
0.000895904
0.000917281
0.000939433
0.000962369
0.000986083
0.00101062
0.00103601
0.00106225
0.00108934
0.00111729
0.0011461
0.00117576
0.00120627
0.00123762
0.00126978
0.00130276
0.00133653
0.00137106
0.00140635
0.00144236
0.00147906
0.00151644
0.00155445
0.00159308
0.00163228
0.00167202
0.00171227
0.00175298
0.00179411
0.00183563
0.0018775
0.00191966
0.00196209
0.00200474
0.00204756
0.00209051
0.00213356
0.00217666
0.00221976
0.00226283
0.00230581
0.00234866
0.00239135
0.00243381
0.00247602
0.00251791
0.00255946
0.00260061
0.00264133
0.00268157
0.00272131
0.00276048
0.00279902
0.00283689
0.00287407
0.00291054
0.00294626
0.00298122
0.0030154
0.00304879
0.00308136
0.00311311
0.00314399
0.00317399
0.00320308
0.00323124
0.00325845
0.00328468
0.00330991
0.00333412
0.00335729
0.00337939
0.00340041
0.00342031
0.00343907
0.00345668
0.00347314
0.00348846
0.00350292
0.00351598
0.00352781
0.00353814
0.00354734
0.00355534
0.00356215
0.00356778
0.00357224
0.00357554
0.0035777
0.00357872
0.00357863
0.00357744
0.00357517
0.00357181
0.00356738
0.00356185
0.00355515
0.00354711
0.00353736
0.00352509
0.00350919
0.0034895
0.0034666
0.00344117
0.00341381
0.00338492
0.00335482
0.00332371
0.0032918
0.00325924
0.00322619
0.00319279
0.00315916
0.00312544
0.00309175
0.00305821
0.00302487
0.00299189
0.00295934
0.00292729
0.00289577
0.00286477
0.00283425
0.002804
0.00277395
0.00274371
0.00271153
0.00265556
8.58915e-06
1.85649e-05
4.06937e-05
7.70908e-05
0.000123685
0.000173924
0.000222919
0.000268003
0.000308302
0.000343836
0.000375024
0.000402424
0.000426604
0.000448089
0.000467342
0.000484762
0.000500687
0.000515405
0.00052916
0.000542163
0.000554591
0.000566597
0.000578311
0.000589844
0.000601288
0.000612722
0.000624211
0.000635812
0.000647574
0.00065954
0.000671748
0.000684234
0.000697032
0.000710172
0.000723685
0.0007376
0.000751946
0.000766752
0.000782046
0.00079786
0.000814225
0.000831173
0.000848735
0.000866942
0.000885826
0.000905419
0.00092575
0.000946835
0.000968695
0.000991346
0.00101481
0.00103908
0.00106419
0.00109014
0.00111698
0.00114471
0.00117336
0.00120292
0.00123337
0.00126472
0.00129695
0.00133006
0.00136405
0.00139888
0.00143456
0.00147107
0.00150837
0.00154646
0.0015853
0.00162487
0.00166514
0.00170608
0.00174765
0.00178983
0.00183258
0.00187587
0.00191965
0.00196389
0.00200854
0.00205357
0.00209894
0.00214459
0.0021905
0.00223661
0.00228288
0.00232928
0.00237575
0.00242226
0.00246876
0.00251521
0.00256156
0.00260778
0.00265382
0.00269963
0.00274517
0.0027904
0.00283526
0.00287973
0.00292376
0.0029673
0.0030103
0.00305273
0.00309454
0.00313569
0.00317613
0.00321582
0.00325474
0.00329285
0.00333014
0.00336657
0.00340214
0.00343681
0.00347057
0.00350339
0.00353525
0.00356612
0.00359598
0.00362481
0.00365259
0.00367929
0.00370489
0.00372937
0.00375271
0.0037749
0.0037959
0.0038157
0.00383428
0.00385162
0.00386771
0.00388259
0.00389644
0.00390887
0.00391988
0.00392949
0.0039378
0.00394479
0.0039505
0.00395496
0.00395817
0.00396015
0.0039609
0.00396045
0.00395882
0.00395603
0.00395208
0.00394701
0.00394081
0.00393348
0.00392498
0.0039152
0.00390393
0.00389071
0.00387497
0.00385651
0.00383551
0.00381233
0.00378735
0.00376087
0.00373315
0.00370438
0.00367474
0.0036444
0.0036135
0.00358219
0.0035506
0.00351887
0.00348711
0.00345546
0.00342399
0.00339284
0.00336208
0.0033318
0.00330205
0.00327284
0.00324416
0.0032159
0.00318794
0.00315997
0.00313025
0.003082
8.80498e-06
2.0873e-05
4.71293e-05
8.9418e-05
0.000142553
0.000199147
0.000254015
0.000304343
0.00034925
0.000388795
0.000423454
0.000453855
0.000480639
0.000504403
0.000525678
0.000544923
0.000562529
0.000578829
0.000594105
0.000608594
0.000622496
0.00063598
0.00064919
0.000662244
0.000675243
0.000688275
0.00070141
0.000714711
0.000728233
0.000742023
0.000756124
0.000770577
0.000785416
0.000800678
0.000816394
0.000832597
0.000849319
0.000866589
0.000884438
0.000902898
0.000921999
0.000941771
0.000962242
0.000983441
0.00100539
0.00102813
0.00105166
0.00107601
0.0011012
0.00112724
0.00115415
0.00118192
0.00121059
0.00124015
0.00127062
0.00130202
0.00133433
0.00136755
0.00140167
0.00143669
0.00147258
0.00150934
0.00154696
0.0015854
0.00162466
0.0016647
0.00170551
0.00174706
0.00178932
0.00183225
0.00187584
0.00192003
0.00196481
0.00201013
0.00205596
0.00210226
0.00214899
0.00219611
0.00224357
0.00229134
0.00233938
0.00238763
0.00243607
0.00248464
0.0025333
0.00258201
0.00263073
0.00267941
0.00272801
0.00277649
0.00282481
0.00287292
0.00292078
0.00296834
0.00301557
0.00306242
0.00310884
0.0031548
0.00320025
0.00324516
0.00328946
0.00333314
0.00337614
0.00341842
0.00345995
0.00350068
0.00354059
0.00357966
0.00361784
0.00365513
0.00369148
0.00372689
0.00376133
0.00379476
0.00382718
0.00385855
0.00388885
0.00391807
0.00394618
0.00397316
0.00399899
0.00402365
0.00404712
0.00406938
0.00409042
0.00411021
0.00412875
0.004146
0.00416197
0.0041767
0.00419023
0.00420235
0.00421308
0.00422239
0.0042303
0.00423681
0.00424202
0.00424593
0.00424856
0.00424991
0.00425001
0.00424887
0.00424651
0.00424295
0.00423821
0.00423231
0.00422526
0.00421707
0.00420772
0.00419716
0.00418525
0.00417177
0.00415641
0.00413901
0.00411962
0.00409839
0.00407555
0.00405131
0.00402588
0.00399942
0.00397211
0.00394409
0.00391551
0.00388651
0.00385724
0.00382781
0.00379837
0.00376903
0.0037399
0.00371108
0.00368269
0.0036548
0.00362748
0.00360077
0.00357472
0.00354925
0.00352432
0.00349966
0.0034738
0.00343398
9.55127e-06
2.20319e-05
5.03627e-05
9.70383e-05
0.000156094
0.000218863
0.000279572
0.000335067
0.000384428
0.000427764
0.00046564
0.000498775
0.000527898
0.000553683
0.00057673
0.000597559
0.000616613
0.000634265
0.000650831
0.000666576
0.000681722
0.000696453
0.000710925
0.000725268
0.000739591
0.000753985
0.000768529
0.00078329
0.000798325
0.000813685
0.000829416
0.000845559
0.000862151
0.000879229
0.000896826
0.000914975
0.000933706
0.000953049
0.000973034
0.00099369
0.00101504
0.00103712
0.00105995
0.00108355
0.00110795
0.00113316
0.00115921
0.0011861
0.00121385
0.00124247
0.00127197
0.00130237
0.00133365
0.00136584
0.00139893
0.00143292
0.00146781
0.00150359
0.00154024
0.00157775
0.00161611
0.0016553
0.0016953
0.00173609
0.00177764
0.00181994
0.00186296
0.00190666
0.00195102
0.00199601
0.00204159
0.00208774
0.00213441
0.00218157
0.00222919
0.00227723
0.00232564
0.00237439
0.00242344
0.00247275
0.00252228
0.00257197
0.0026218
0.00267173
0.0027217
0.00277167
0.00282161
0.00287147
0.00292121
0.00297079
0.00302017
0.0030693
0.00311815
0.00316666
0.0032148
0.00326252
0.00330979
0.00335657
0.0034028
0.00344845
0.00349348
0.00353785
0.00358152
0.00362444
0.00366659
0.00370792
0.00374841
0.00378803
0.00382674
0.00386452
0.00390135
0.00393719
0.00397203
0.00400584
0.0040386
0.00407028
0.00410087
0.00413034
0.00415867
0.00418585
0.00421186
0.00423668
0.00426029
0.00428267
0.0043038
0.00432368
0.00434228
0.0043596
0.00437563
0.00439038
0.00440385
0.00441595
0.00442671
0.00443606
0.00444386
0.00445027
0.00445538
0.00445919
0.0044617
0.00446293
0.00446289
0.0044616
0.00445907
0.00445533
0.0044504
0.0044443
0.00443705
0.00442865
0.0044191
0.00440839
0.00439645
0.00438315
0.00436836
0.00435197
0.00433396
0.00431442
0.00429346
0.00427124
0.00424791
0.00422362
0.00419852
0.00417274
0.00414644
0.00411974
0.0040928
0.00406574
0.0040387
0.00401179
0.00398514
0.00395885
0.00393303
0.00390778
0.00388318
0.0038593
0.00383619
0.00381388
0.00379234
0.00377139
0.00374976
0.00371816
1.06207e-05
2.23732e-05
5.08822e-05
0.000100147
0.000164147
0.000232816
0.000299193
0.000359868
0.000413613
0.000460604
0.000501511
0.000537161
0.000568386
0.000595951
0.000620529
0.000642701
0.000662962
0.000681727
0.000699346
0.000716107
0.000732253
0.000747986
0.000763472
0.000778851
0.000794239
0.000809732
0.000825414
0.000841353
0.000857609
0.000874235
0.000891278
0.000908777
0.000926772
0.000945297
0.000964384
0.000984065
0.00100437
0.00102532
0.00104695
0.00106928
0.00109234
0.00111614
0.00114072
0.00116608
0.00119225
0.00121923
0.00124706
0.00127572
0.00130525
0.00133563
0.00136688
0.001399
0.001432
0.00146587
0.00150061
0.00153621
0.00157268
0.00160999
0.00164813
0.00168709
0.00172685
0.0017674
0.00180871
0.00185077
0.00189355
0.00193702
0.00198116
0.00202595
0.00207135
0.00211734
0.00216388
0.00221095
0.0022585
0.00230652
0.00235495
0.00240377
0.00245294
0.00250242
0.00255217
0.00260216
0.00265234
0.00270268
0.00275313
0.00280365
0.0028542
0.00290475
0.00295524
0.00300564
0.00305591
0.003106
0.00315587
0.00320549
0.00325481
0.00330379
0.00335238
0.00340055
0.00344825
0.00349545
0.0035421
0.00358816
0.00363358
0.00367834
0.00372239
0.00376569
0.0038082
0.00384989
0.00389073
0.00393068
0.00396972
0.00400782
0.00404494
0.00408107
0.00411617
0.00415023
0.00418322
0.00421513
0.00424592
0.00427558
0.0043041
0.00433146
0.00435763
0.00438261
0.00440637
0.00442891
0.0044502
0.00447023
0.00448899
0.00450647
0.00452267
0.00453759
0.00455119
0.00456354
0.00457453
0.00458408
0.00459197
0.00459857
0.00460387
0.00460789
0.00461061
0.00461205
0.00461224
0.00461117
0.00460888
0.00460538
0.00460069
0.00459483
0.00458783
0.00457968
0.00457041
0.00456001
0.00454845
0.00453568
0.00452163
0.00450626
0.00448955
0.00447153
0.00445227
0.00443188
0.00441049
0.0043882
0.00436517
0.00434152
0.00431738
0.00429291
0.00426824
0.0042435
0.00421882
0.00419433
0.00417016
0.00414641
0.00412321
0.00410065
0.00407884
0.00405787
0.00403782
0.00401876
0.0040007
0.00398354
0.00396618
0.00394217
1.17842e-05
2.23603e-05
4.992e-05
0.000100185
0.000167846
0.0002417
0.000313301
0.000378867
0.000436781
0.000487211
0.000530913
0.000568828
0.000601895
0.000630972
0.000656813
0.000680063
0.000701266
0.000720879
0.000739282
0.000756792
0.000773668
0.000790126
0.000806345
0.00082247
0.000838624
0.000854908
0.000871407
0.000888193
0.000905325
0.000922856
0.000940832
0.000959293
0.000978275
0.000997811
0.00101793
0.00103866
0.00106003
0.00108207
0.00110479
0.00112821
0.00115236
0.00117726
0.00120292
0.00122936
0.00125659
0.00128462
0.00131346
0.00134313
0.00137362
0.00140494
0.00143709
0.00147008
0.0015039
0.00153856
0.00157404
0.00161034
0.00164746
0.00168537
0.00172407
0.00176355
0.00180378
0.00184476
0.00188646
0.00192887
0.00197196
0.00201572
0.00206011
0.00210512
0.00215071
0.00219687
0.00224357
0.00229077
0.00233845
0.00238657
0.00243511
0.00248403
0.00253329
0.00258287
0.00263272
0.0026828
0.00273309
0.00278354
0.0028341
0.00288475
0.00293544
0.00298613
0.00303677
0.00308733
0.00313777
0.00318804
0.0032381
0.00328791
0.00333743
0.00338661
0.00343542
0.0034838
0.00353173
0.00357915
0.00362603
0.00367232
0.00371798
0.00376298
0.00380727
0.00385081
0.00389356
0.00393549
0.00397657
0.00401675
0.00405602
0.00409434
0.00413168
0.00416802
0.00420332
0.00423757
0.00427075
0.00430283
0.00433379
0.00436362
0.00439231
0.00441983
0.00444617
0.00447132
0.00449526
0.00451798
0.00453947
0.0045597
0.00457867
0.00459639
0.00461284
0.00462802
0.00464195
0.00465469
0.00466608
0.00467578
0.00468403
0.00469101
0.00469672
0.00470116
0.00470433
0.00470625
0.00470693
0.00470637
0.00470461
0.00470166
0.00469754
0.00469226
0.00468585
0.00467831
0.00466967
0.00465992
0.00464907
0.00463711
0.004624
0.00460974
0.00459432
0.00457777
0.00456013
0.00454147
0.0045219
0.00450152
0.00448045
0.00445883
0.00443678
0.00441445
0.00439197
0.00436947
0.0043471
0.00432498
0.00430324
0.004282
0.00426137
0.00424148
0.00422244
0.00420436
0.00418735
0.0041715
0.00415688
0.00414342
0.00413024
0.0041131
1.29925e-05
2.2181e-05
4.81252e-05
9.81276e-05
0.000168123
0.000246167
0.000322364
0.000392203
0.000453935
0.000507453
0.00055361
0.000593452
0.000628027
0.000658287
0.000685064
0.000709067
0.000730893
0.000751037
0.00076991
0.000787848
0.000805131
0.000821986