/*--------------------------------*- C++ -*----------------------------------*\
| =========                 |                                                 |
| \\      /  F ield         | OpenFOAM: The Open Source CFD Toolbox           |
|  \\    /   O peration     | Version:  2412                                  |
|   \\  /    A nd           | Website:  www.openfoam.com                      |
|    \\/     M anipulation  |                                                 |
\*---------------------------------------------------------------------------*/
FoamFile
{
    version     2.0;
    format      ascii;
    arch        "LSB;label=32;scalar=64";
    class       volScalarField;
    location    "200";
    object      p;
}
// * * * * * * * * * * * * * * * * * * * * * * * * * * * * * * * * * * * * * //

dimensions      [0 2 -2 0 0 0 0];

internalField   nonuniform List<scalar> 
12225
(
25.4496
7.28363
1.70473
1.0047
0.268619
-0.599025
-1.28682
-1.82797
-2.30013
-2.73654
-3.15017
-3.55033
-3.94518
-4.34238
-4.74858
-5.17513
-5.62205
-6.10834
19.6674
6.82768
1.97222
1.11391
0.323591
-0.56725
-1.26694
-1.81084
-2.28466
-2.72333
-3.13892
-3.54051
-3.93642
-4.33438
-4.7407
-5.16645
-5.61239
-6.10499
15.9571
7.20417
2.46975
1.26705
0.43238
-0.477658
-1.20486
-1.76352
-2.2455
-2.6906
-3.11082
-3.51524
-3.91265
-4.31077
-4.71474
-5.13212
-5.54626
-5.93022
13.8314
7.64251
2.97404
1.44169
0.584197
-0.32757
-1.08716
-1.66947
-2.16518
-2.62102
-3.04929
-3.45841
-3.85745
-4.25358
-4.64987
-5.04726
-5.41246
-5.70754
11.983
7.54602
3.31658
1.62441
0.749602
-0.148612
-0.930942
-1.53649
-2.04566
-2.51141
-2.94715
-3.36003
-3.75848
-4.14854
-4.53043
-4.89907
-5.21575
-5.45036
10.2686
7.12643
3.53603
1.80708
0.902287
0.0257824
-0.761869
-1.38383
-1.90333
-2.3754
-2.81528
-3.22867
-3.6224
-4.00117
-4.36278
-4.69856
-4.97372
-5.16498
8.88633
6.59873
3.63815
1.95628
1.02474
0.175596
-0.600489
-1.2295
-1.75498
-2.22901
-2.66864
-3.07855
-3.46381
-3.82765
-4.16664
-4.47101
-4.71406
-4.87672
7.8321
6.07402
3.63756
2.05475
1.11542
0.296577
-0.457195
-1.08473
-1.61204
-2.08456
-2.52041
-2.92382
-3.2984
-3.6461
-3.96348
-4.24146
-4.46198
-4.61009
6.90065
5.57987
3.57625
2.11436
1.18464
0.395581
-0.331431
-0.951291
-1.47706
-1.94593
-2.37589
-2.77119
-3.1344
-3.46665
-3.76511
-4.02255
-4.22795
-4.37088
6.05512
5.09128
3.47063
2.14686
1.24181
0.482269
-0.216463
-0.82442
-1.34604
-1.81004
-2.23313
-2.61975
-2.97187
-3.29024
-3.57294
-3.81494
-4.01031
-4.1525
5.33165
4.63016
3.33112
2.15376
1.28809
0.560388
-0.108446
-0.70072
-1.21539
-1.67324
-2.08881
-2.46666
-2.80844
-3.11486
-3.38495
-3.61577
-3.8048
-3.94836
4.7666
4.23421
3.17748
2.1361
1.31882
0.62381
-0.0156843
-0.590219
-1.09571
-1.54642
-1.95442
-2.3242
-2.65729
-2.9545
-3.21559
-3.43923
-3.62489
-3.77057
4.28325
3.86997
3.01308
2.10107
1.3378
0.677725
0.0689089
-0.485409
-0.979322
-1.42138
-1.82109
-2.1827
-2.50768
-2.79697
-3.05095
-3.26949
-3.45337
-3.60179
3.81485
3.49843
2.822
2.04424
1.34678
0.728565
0.155271
-0.373774
-0.851845
-1.2823
-1.67171
-2.02383
-2.34012
-2.62162
-2.86926
-3.08386
-3.26704
-3.41894
3.38197
3.1422
2.61707
1.96875
1.34566
0.775074
0.240733
-0.258729
-0.716681
-1.13246
-1.50963
-1.85106
-2.1582
-2.43219
-2.67434
-2.88604
-3.06939
-3.22516
3.01141
2.82904
2.42134
1.88702
1.33961
0.819115
0.324621
-0.143181
-0.578032
-0.976752
-1.34022
-1.67023
-1.96808
-2.23498
-2.47238
-2.68196
-2.86594
-3.02553
2.73779
2.59485
2.26953
1.82337
1.34195
0.867691
0.409755
-0.0281203
-0.439858
-0.821037
-1.17064
-1.4894
-1.7784
-2.03881
-2.27212
-2.48006
-2.66472
-2.82765
2.61185
2.49095
2.2112
1.81652
1.37719
0.934634
0.502604
0.0867319
-0.307031
-0.673876
-1.01187
-1.32115
-1.60265
-1.85758
-2.08741
-2.29384
-2.47876
-2.64399
2.7196
2.59906
2.31878
1.9231
1.48407
1.04409
0.616347
0.205528
-0.182902
-0.544283
-0.876881
-1.18117
-1.45839
-1.71001
-1.93765
-2.14317
-2.3284
-2.49551
3.12232
2.96833
2.61902
2.14681
1.64975
1.17246
0.719212
0.2897
-0.111153
-0.479362
-0.814947
-1.12
-1.39671
-1.64708
-1.87319
-2.07724
-2.2612
-2.42755
3.66413
3.45342
2.98488
2.38806
1.80505
1.27556
0.785204
0.327456
-0.0920291
-0.470505
-0.811105
-1.11816
-1.39492
-1.64405
-1.86822
-2.07007
-2.25184
-2.41624
4.36711
4.05776
3.39476
2.61922
1.9326
1.34665
0.814378
0.324657
-0.11407
-0.50186
-0.846392
-1.15442
-1.4301
-1.6768
-1.89786
-2.09642
-2.27491
-2.43626
5.23389
4.76136
3.80728
2.80819
2.0188
1.38104
0.806167
0.285838
-0.168101
-0.561669
-0.907916
-1.21527
-1.48834
-1.73127
-1.94816
-2.14268
-2.3174
-2.47558
6.28232
5.53993
4.17517
2.93449
2.068
1.38613
0.76591
0.217195
-0.24658
-0.641984
-0.987697
-1.29273
-1.56183
-1.79994
-2.01191
-2.2018
-2.37259
-2.52802
7.54507
6.38047
4.44706
2.96352
2.06476
1.35401
0.691943
0.120786
-0.347878
-0.742808
-1.08657
-1.38783
-1.6517
-1.88396
-2.09004
-2.27405
-2.43956
-2.58941
9.0864
7.29813
4.61616
2.89664
1.98951
1.25592
0.566298
-0.0112489
-0.476139
-0.866132
-1.20377
-1.4971
-1.75233
-1.97606
-2.17398
-2.34983
-2.50774
-2.64678
10.8964
8.05294
4.63792
2.80986
1.8918
1.11521
0.41194
-0.154237
-0.607504
-0.988879
-1.31708
-1.59997
-1.84511
-2.05976
-2.24952
-2.41784
-2.56919
-2.6999
13.0022
8.09727
4.23127
2.65068
1.78495
0.966522
0.261405
-0.287009
-0.727427
-1.09914
-1.41704
-1.68981
-1.92603
-2.133
-2.31602
-2.47839
-2.62451
-2.75148
16.6789
8.01157
3.59657
2.4043
1.64901
0.836428
0.150884
-0.378915
-0.807495
-1.1685
-1.47562
-1.73899
-1.96779
-2.1689
-2.34724
-2.506
-2.64903
-2.77516
22.8881
9.08021
3.32153
2.17951
1.51325
0.754711
0.107999
-0.403518
-0.825813
-1.18379
-1.48882
-1.75086
-1.97882
-2.17929
-2.35708
-2.51545
-2.65801
-2.78452
-4.94357
-4.9433
-4.94318
-4.94336
-4.94386
-4.94468
-4.9458
-4.94719
-4.94882
-4.95066
-4.95268
-4.95484
-4.95712
-4.9595
-4.96197
-4.96452
-4.96715
-4.96985
-4.97263
-4.97548
-4.97842
-4.98145
-4.98459
-4.98783
-4.9912
-4.99471
-4.99836
-5.00217
-5.00614
-5.01029
-5.01462
-5.01914
-5.02386
-5.02878
-5.03392
-5.03926
-5.04483
-5.05062
-5.05664
-5.06289
-5.06937
-5.07608
-5.08301
-5.09017
-5.09755
-5.10514
-5.11293
-5.1209
-5.12905
-5.13735
-5.14578
-5.15431
-5.16291
-5.17154
-5.18017
-5.18873
-5.19718
-5.20544
-5.21345
-5.22113
-5.22838
-5.23512
-5.24124
-5.24663
-5.25115
-5.25467
-5.25705
-5.25813
-5.25773
-5.25569
-5.25181
-5.24589
-5.23772
-5.22709
-5.21375
-5.19748
-5.17799
-5.15504
-5.12834
-5.09762
-5.06259
-5.02294
-4.97839
-4.92861
-4.8733
-4.81212
-4.74478
-4.67091
-4.59022
-4.50238
-4.40714
-4.30419
-4.19322
-4.07392
-3.94603
-3.80929
-3.66343
-3.50825
-3.34352
-3.16907
-2.98473
-2.79039
-2.58592
-2.37125
-2.14628
-1.91102
-1.66544
-1.40971
-1.14397
-0.868391
-0.582942
-0.287767
0.0168821
0.330669
0.653296
0.984368
1.32352
1.67031
2.02427
2.38489
2.75163
3.12392
3.50118
3.88279
4.26811
4.65645
5.04711
5.43938
5.83255
6.22588
6.61865
7.01012
7.39956
7.78624
8.16944
8.5485
8.92276
9.29159
9.6544
10.0106
10.3598
10.7013
11.0349
11.36
11.6762
11.9834
12.2812
12.5695
12.8482
13.1174
13.3774
13.6281
13.8686
14.0978
14.3161
14.5238
14.7214
14.9093
15.0878
15.2572
15.4179
15.5701
15.7141
15.8505
15.9796
16.1017
16.2173
16.327
16.4311
16.5301
16.6246
16.7151
16.8022
16.8867
16.9695
17.0518
17.1361
17.2237
17.3308
17.4187
-4.9436
-4.94331
-4.94317
-4.94334
-4.9438
-4.94455
-4.94555
-4.94679
-4.94824
-4.94988
-4.95167
-4.9536
-4.95566
-4.95783
-4.9601
-4.96247
-4.96494
-4.96749
-4.97013
-4.97286
-4.97568
-4.9786
-4.98163
-4.98477
-4.98804
-4.99144
-4.99498
-4.99868
-5.00253
-5.00656
-5.01075
-5.01513
-5.0197
-5.02447
-5.02943
-5.03461
-5.03999
-5.0456
-5.05142
-5.05747
-5.06373
-5.07023
-5.07694
-5.08387
-5.09101
-5.09837
-5.10591
-5.11365
-5.12155
-5.1296
-5.13778
-5.14607
-5.15442
-5.1628
-5.17117
-5.17949
-5.1877
-5.19574
-5.20353
-5.21101
-5.21808
-5.22465
-5.23062
-5.23587
-5.24027
-5.2437
-5.24601
-5.24704
-5.24663
-5.2446
-5.24075
-5.2349
-5.22682
-5.21631
-5.20312
-5.18701
-5.16773
-5.14501
-5.11857
-5.08816
-5.05345
-5.01417
-4.97
-4.92065
-4.86579
-4.80512
-4.73829
-4.66498
-4.58486
-4.49764
-4.40306
-4.3008
-4.19055
-4.07201
-3.9449
-3.80897
-3.66397
-3.50967
-3.34586
-3.17236
-2.98901
-2.79569
-2.59229
-2.37873
-2.15495
-1.9209
-1.67655
-1.42194
-1.15721
-0.882547
-0.59815
-0.304181
-0.000852368
0.311578
0.632793
0.962447
1.30015
1.64547
1.99795
2.35709
2.72234
3.09315
3.46893
3.84908
4.23295
4.61987
5.00915
5.40007
5.79193
6.184
6.57557
6.96592
7.3543
7.73999
8.12229
8.50052
8.87404
9.24222
9.60448
9.96026
10.309
10.6503
10.9837
11.3088
11.6251
11.9324
12.2305
12.5193
12.7986
13.0687
13.3297
13.5813
13.8226
14.0531
14.2728
14.4822
14.6815
14.871
15.0512
15.2223
15.3845
15.5383
15.684
15.8219
15.9524
16.076
16.1931
16.3041
16.4095
16.5098
16.6055
16.6972
16.7854
16.8711
16.9551
17.0386
17.1242
17.2123
17.321
17.4027
-4.94227
-4.94205
-4.94198
-4.94222
-4.94272
-4.94347
-4.94443
-4.94559
-4.94691
-4.94838
-4.94997
-4.95168
-4.9535
-4.95543
-4.95745
-4.95957
-4.96178
-4.96408
-4.96647
-4.96896
-4.97155
-4.97425
-4.97706
-4.98
-4.98306
-4.98625
-4.98958
-4.99306
-4.99669
-5.00049
-5.00444
-5.00857
-5.01287
-5.01736
-5.02204
-5.02691
-5.03199
-5.03727
-5.04275
-5.04845
-5.05437
-5.0605
-5.06684
-5.0734
-5.08016
-5.08713
-5.0943
-5.10165
-5.10917
-5.11685
-5.12466
-5.13258
-5.14058
-5.14863
-5.15668
-5.16469
-5.1726
-5.18037
-5.18792
-5.19518
-5.20206
-5.20847
-5.2143
-5.21946
-5.2238
-5.22721
-5.22953
-5.23062
-5.2303
-5.2284
-5.22474
-5.2191
-5.21128
-5.20105
-5.18819
-5.17245
-5.15357
-5.13131
-5.10538
-5.07551
-5.04139
-5.00274
-4.95925
-4.91062
-4.85654
-4.79669
-4.73075
-4.65839
-4.57927
-4.49311
-4.39965
-4.29857
-4.18957
-4.07235
-3.94664
-3.81216
-3.66869
-3.51599
-3.35385
-3.18209
-3.00056
-2.80911
-2.60766
-2.39608
-2.17432
-1.94232
-1.7001
-1.44769
-1.18524
-0.912871
-0.630802
-0.3392
-0.0382878
0.271697
0.590437
0.917608
1.25282
1.59567
1.94569
2.30238
2.66522
3.03367
3.40714
3.78503
4.16672
4.55153
4.93878
5.32776
5.71777
6.10811
6.49806
6.88691
7.27393
7.65839
8.0396
8.41688
8.78959
9.15711
9.51885
9.87426
10.2228
10.564
10.8975
11.2228
11.5395
11.8474
12.1462
12.4359
12.7161
12.9871
13.2486
13.5004
13.7424
13.9744
14.1962
14.4078
14.6096
14.8017
14.9843
15.1579
15.3226
15.4788
15.6269
15.7672
15.9
16.0259
16.1451
16.2583
16.3657
16.468
16.5656
16.6592
16.7494
16.8369
16.9227
17.008
17.0955
17.184
17.293
17.363
-4.93941
-4.93937
-4.93952
-4.93993
-4.94059
-4.94148
-4.94253
-4.94372
-4.94501
-4.94639
-4.94783
-4.94936
-4.95096
-4.95265
-4.95441
-4.95626
-4.9582
-4.96022
-4.96233
-4.96454
-4.96686
-4.96929
-4.97183
-4.9745
-4.9773
-4.98023
-4.98329
-4.98651
-4.98986
-4.99337
-4.99703
-5.00086
-5.00486
-5.00903
-5.01338
-5.01792
-5.02265
-5.02758
-5.03271
-5.03804
-5.04359
-5.04934
-5.0553
-5.06148
-5.06787
-5.07447
-5.08126
-5.08825
-5.09542
-5.10276
-5.11024
-5.11785
-5.12555
-5.13333
-5.14112
-5.14891
-5.15661
-5.1642
-5.17158
-5.1787
-5.18546
-5.19179
-5.19757
-5.20269
-5.20704
-5.21049
-5.21288
-5.21406
-5.21388
-5.21215
-5.20868
-5.20328
-5.19574
-5.18583
-5.17333
-5.15799
-5.13958
-5.11781
-5.09243
-5.06316
-5.02971
-4.99178
-4.94907
-4.9013
-4.84814
-4.78929
-4.72442
-4.6532
-4.57532
-4.49048
-4.39842
-4.29884
-4.1914
-4.07584
-3.95186
-3.81921
-3.67764
-3.52692
-3.36685
-3.19723
-3.0179
-2.82873
-2.62959
-2.42037
-2.201
-1.97147
-1.73177
-1.48196
-1.22213
-0.952407
-0.672976
-0.384017
-0.0857406
0.221606
0.537727
0.862298
1.19495
1.53527
1.88281
2.2371
2.5976
2.96378
3.33509
3.71091
4.09064
4.47359
4.85911
5.24648
5.635
6.02399
6.41274
6.80053
7.18664
7.57035
7.95096
8.3278
8.70023
9.06761
9.42936
9.78493
10.1338
10.4755
10.8095
11.1355
11.4531
11.762
12.0619
12.3527
12.6343
12.9063
13.1685
13.4205
13.6626
13.8952
14.118
14.3311
14.5344
14.7283
14.9128
15.0882
15.2549
15.4132
15.5632
15.7055
15.8404
15.9682
16.0894
16.2045
16.3138
16.418
16.5174
16.6127
16.7045
16.7937
16.881
16.9676
17.056
17.1435
17.2494
17.3063
-4.93525
-4.93547
-4.93593
-4.93664
-4.9376
-4.93876
-4.94004
-4.94139
-4.94276
-4.94414
-4.94553
-4.94695
-4.94841
-4.94991
-4.95148
-4.95311
-4.95481
-4.9566
-4.95847
-4.96044
-4.96251
-4.96469
-4.96699
-4.96941
-4.97196
-4.97464
-4.97746
-4.98041
-4.98352
-4.98677
-4.99017
-4.99374
-4.99747
-5.00138
-5.00546
-5.00973
-5.01419
-5.01885
-5.02371
-5.02878
-5.03405
-5.03955
-5.04526
-5.05119
-5.05734
-5.06372
-5.0703
-5.07709
-5.08407
-5.09124
-5.09857
-5.10605
-5.11364
-5.12132
-5.12905
-5.13678
-5.14446
-5.15203
-5.15943
-5.16659
-5.17343
-5.17984
-5.18574
-5.191
-5.19552
-5.19915
-5.20175
-5.20318
-5.20327
-5.20183
-5.19869
-5.19366
-5.18651
-5.17703
-5.165
-5.15017
-5.1323
-5.11114
-5.0864
-5.05781
-5.0251
-4.98797
-4.94612
-4.89925
-4.84707
-4.78924
-4.72547
-4.65542
-4.57876
-4.49522
-4.40452
-4.30635
-4.20039
-4.08636
-3.96398
-3.83297
-3.69311
-3.54414
-3.38587
-3.2181
-3.04065
-2.8534
-2.65618
-2.44894
-2.23155
-2.00404
-1.76638
-1.51864
-1.26088
-0.993249
-0.715869
-0.428953
-0.13268
0.172671
0.486843
0.809487
1.14026
1.47875
1.82451
2.17707
2.53593
2.90055
3.27037
3.6448
4.02321
4.40495
4.78935
5.17572
5.56335
5.95154
6.33961
6.72683
7.11248
7.49585
7.87624
8.25298
8.62542
8.99292
9.35491
9.71083
10.0601
10.4024
10.737
11.0638
11.3822
11.692
11.993
12.2848
12.5673
12.8402
13.103
13.3553
13.5975
13.8301
14.0532
14.2668
14.471
14.6657
14.8513
15.0279
15.1958
15.3553
15.5067
15.6503
15.7865
15.9157
16.0383
16.1547
16.2653
16.3707
16.4714
16.5679
16.6608
16.7509
16.8389
16.9257
17.0135
17.0985
17.1988
17.2424
-4.93011
-4.93065
-4.93149
-4.93259
-4.93397
-4.93553
-4.93716
-4.93878
-4.94034
-4.94185
-4.9433
-4.94471
-4.94612
-4.94754
-4.94899
-4.95048
-4.95203
-4.95365
-4.95534
-4.95713
-4.95902
-4.96101
-4.96312
-4.96535
-4.96771
-4.9702
-4.97282
-4.97559
-4.9785
-4.98156
-4.98478
-4.98817
-4.99172
-4.99545
-4.99937
-5.00347
-5.00777
-5.01228
-5.01699
-5.02193
-5.02708
-5.03247
-5.03808
-5.04393
-5.05002
-5.05633
-5.06288
-5.06966
-5.07664
-5.08384
-5.09122
-5.09876
-5.10644
-5.11422
-5.12208
-5.12996
-5.13781
-5.14558
-5.1532
-5.16059
-5.16768
-5.17436
-5.18055
-5.18613
-5.19097
-5.19495
-5.19792
-5.19974
-5.20023
-5.19922
-5.19653
-5.19197
-5.18532
-5.17636
-5.16488
-5.15063
-5.13336
-5.11283
-5.08875
-5.06087
-5.02889
-4.99252
-4.95148
-4.90546
-4.85416
-4.79726
-4.73445
-4.6654
-4.58978
-4.50734
-4.41776
-4.32075
-4.21598
-4.10317
-3.98203
-3.85231
-3.71375
-3.56612
-3.40919
-3.24279
-3.06673
-2.88086
-2.68505
-2.4792
-2.26325
-2.03715
-1.80093
-1.55461
-1.29829
-1.03207
-0.756087
-0.470532
-0.175609
0.128433
0.441313
0.762709
1.09226
1.42956
1.77418
2.12565
2.48347
2.84711
3.21601
3.58957
3.96718
4.34818
4.73191
5.11769
5.5048
5.89255
6.28023
6.66713
7.05253
7.43572
7.81602
8.19274
8.56522
8.93285
9.29502
9.65119
10.0008
10.3435
10.6786
11.0059
11.3249
11.6354
11.9369
12.2294
12.5124
12.7858
13.049
13.3017
13.5441
13.7769
14.0001
14.214
14.4185
14.6138
14.8
14.9773
15.146
15.3062
15.4585
15.603
15.7401
15.8702
15.9937
16.111
16.2225
16.3288
16.4302
16.5274
16.6209
16.7113
16.7994
16.8856
16.9718
17.0533
17.1472
17.1782
-4.92444
-4.9253
-4.92657
-4.92813
-4.93001
-4.93208
-4.93417
-4.93616
-4.93803
-4.93975
-4.94135
-4.94286
-4.94431
-4.94572
-4.94714
-4.94857
-4.95003
-4.95156
-4.95315
-4.95482
-4.95658
-4.95845
-4.96043
-4.96253
-4.96476
-4.96712
-4.96962
-4.97226
-4.97506
-4.97801
-4.98113
-4.98441
-4.98788
-4.99153
-4.99537
-4.99941
-5.00366
-5.00813
-5.01283
-5.01775
-5.02292
-5.02833
-5.03398
-5.03989
-5.04605
-5.05247
-5.05913
-5.06604
-5.07318
-5.08055
-5.08812
-5.09588
-5.10379
-5.11184
-5.11996
-5.12814
-5.1363
-5.14439
-5.15235
-5.1601
-5.16756
-5.17464
-5.18122
-5.18721
-5.19248
-5.1969
-5.20033
-5.20261
-5.20358
-5.20306
-5.20088
-5.19683
-5.19072
-5.18231
-5.17139
-5.15772
-5.14106
-5.12114
-5.0977
-5.07047
-5.03916
-5.00349
-4.96317
-4.91789
-4.86734
-4.81123
-4.74922
-4.681
-4.60624
-4.52466
-4.43598
-4.33988
-4.23603
-4.12416
-4.00397
-3.8752
-3.73761
-3.59094
-3.435
-3.26956
-3.09448
-2.90957
-2.71473
-2.50984
-2.29485
-2.0697
-1.83444
-1.58906
-1.33368
-1.06836
-0.793285
-0.508592
-0.214525
0.0887014
0.400778
0.721406
1.0502
1.38679
1.73072
2.08154
2.43874
2.80181
3.17017
3.54324
3.92039
4.30097
4.68432
5.06975
5.45658
5.84408
6.23155
6.61826
7.00352
7.38663
7.76687
8.14356
8.51606
8.88376
9.24606
9.60241
9.95228
10.2952
10.6306
10.9582
11.2776
11.5884
11.8903
12.183
12.4663
12.7399
13.0033
13.2563
13.4991
13.732
13.9554
14.1695
14.3743
14.5699
14.7564
14.9342
15.1033
15.2642
15.417
15.562
15.6997
15.8305
15.9546
16.0725
16.1846
16.2914
16.3933
16.4909
16.5846
16.675
16.7626
16.8476
16.9316
17.0092
17.0969
17.1163
-4.91879
-4.91996
-4.92166
-4.92374
-4.92619
-4.92884
-4.93146
-4.93391
-4.93614
-4.93815
-4.93997
-4.94164
-4.94319
-4.94467
-4.94611
-4.94755
-4.94899
-4.95048
-4.95202
-4.95364
-4.95534
-4.95714
-4.95904
-4.96107
-4.96322
-4.96551
-4.96795
-4.97053
-4.97327
-4.97617
-4.97925
-4.98251
-4.98596
-4.9896
-4.99346
-4.99752
-5.00182
-5.00634
-5.01111
-5.01613
-5.0214
-5.02694
-5.03274
-5.03882
-5.04516
-5.05179
-5.05868
-5.06584
-5.07325
-5.0809
-5.08878
-5.09685
-5.1051
-5.1135
-5.12199
-5.13054
-5.1391
-5.1476
-5.15597
-5.16415
-5.17205
-5.17957
-5.18661
-5.19307
-5.19881
-5.20371
-5.20762
-5.21039
-5.21185
-5.21184
-5.21017
-5.20664
-5.20105
-5.19317
-5.18279
-5.16967
-5.15355
-5.13419
-5.11133
-5.08467
-5.05396
-5.01889
-4.97918
-4.93452
-4.88461
-4.82913
-4.76778
-4.70022
-4.62613
-4.54525
-4.45726
-4.36185
-4.2587
-4.14752
-4.02803
-3.89996
-3.76305
-3.61707
-3.4618
-3.29705
-3.12261
-2.93836
-2.74414
-2.53988
-2.32549
-2.10096
-1.86628
-1.6215
-1.36667
-1.10192
-0.827366
-0.543193
-0.249611
0.0531373
0.364767
0.684957
1.01334
1.34953
1.69308
2.04355
2.40044
2.76321
3.13131
3.50412
3.88104
4.26142
4.64459
5.02986
5.41653
5.80391
6.19127
6.57789
6.96308
7.34612
7.72632
8.103
8.47552
8.84326
9.20563
9.56206
9.91203
10.255
10.5906
10.9184
11.2379
11.5488
11.8509
12.1438
12.4271
12.7007
12.9642
13.2174
13.4604
13.6936
13.9172
14.1314
14.3363
14.5321
14.7189
14.897
15.0665
15.2276
15.3808
15.5263
15.6644
15.7955
15.92
16.0383
16.1508
16.2579
16.36
16.4577
16.5513
16.6413
16.7282
16.8117
16.8931
16.9667
17.0485
17.0578
-4.9138
-4.91525
-4.91734
-4.91993
-4.92301
-4.9263
-4.9295
-4.93244
-4.93507
-4.9374
-4.93947
-4.94132
-4.94302
-4.9446
-4.94611
-4.94759
-4.94905
-4.95054
-4.95207
-4.95367
-4.95535
-4.95712
-4.959
-4.96099
-4.96312
-4.96539
-4.9678
-4.97037
-4.9731
-4.97601
-4.97911
-4.98239
-4.98588
-4.98959
-4.99351
-4.99767
-5.00206
-5.00671
-5.01162
-5.0168
-5.02225
-5.02798
-5.034
-5.04032
-5.04693
-5.05383
-5.06101
-5.06848
-5.07622
-5.08422
-5.09246
-5.10091
-5.10955
-5.11835
-5.12726
-5.13623
-5.14522
-5.15416
-5.16299
-5.17162
-5.17998
-5.18797
-5.19548
-5.20241
-5.20862
-5.21399
-5.21838
-5.22163
-5.22357
-5.22404
-5.22285
-5.2198
-5.21468
-5.20729
-5.19739
-5.18475
-5.16912
-5.15025
-5.12787
-5.10171
-5.07148
-5.03691
-4.9977
-4.95354
-4.90414
-4.84917
-4.78833
-4.72128
-4.64772
-4.56735
-4.47988
-4.38498
-4.28234
-4.17166
-4.05265
-3.92506
-3.78862
-3.6431
-3.48827
-3.32394
-3.14991
-2.96606
-2.77221
-2.56831
-2.35427
-2.13009
-1.89573
-1.65126
-1.39673
-1.13227
-0.857975
-0.574063
-0.280708
0.0218137
0.333242
0.653229
0.981433
1.31744
1.66085
2.01118
2.36795
2.73061
3.09861
3.47133
3.84818
4.22848
4.61158
4.99677
5.38338
5.77069
6.15799
6.54458
6.92973
7.31274
7.69289
8.06953
8.44202
8.80973
9.17208
9.5285
9.87846
10.2215
10.557
10.8848
11.2043
11.5152
11.8173
12.1101
12.3934
12.667
12.9304
13.1837
13.4269
13.6602
13.8839
14.0982
14.3032
14.4992
14.6861
14.8644
15.0341
15.1955
15.3489
15.4946
15.633
15.7644
15.8891
16.0076
16.1203
16.2275
16.3297
16.4273
16.5206
16.6101
16.6959
16.7777
16.8564
16.926
17.0025
17.0031
-4.91013
-4.9118
-4.91421
-4.91727
-4.92095
-4.92488
-4.92867
-4.93212
-4.93516
-4.93781
-4.94013
-4.94218
-4.94402
-4.94571
-4.94729
-4.94882
-4.95032
-4.95183
-4.95337
-4.95496
-4.95664
-4.9584
-4.96027
-4.96227
-4.96439
-4.96666
-4.96908
-4.97167
-4.97444
-4.97739
-4.98053
-4.98389
-4.98746
-4.99126
-4.9953
-4.99958
-5.00413
-5.00894
-5.01403
-5.01941
-5.02509
-5.03106
-5.03734
-5.04393
-5.05083
-5.05805
-5.06556
-5.07337
-5.08147
-5.08984
-5.09846
-5.1073
-5.11635
-5.12556
-5.13488
-5.14429
-5.15371
-5.16309
-5.17235
-5.18143
-5.19023
-5.19866
-5.20661
-5.21398
-5.22063
-5.22644
-5.23126
-5.23494
-5.23731
-5.2382
-5.23743
-5.23479
-5.23009
-5.2231
-5.21361
-5.20137
-5.18613
-5.16765
-5.14566
-5.11989
-5.09006
-5.05587
-5.01704
-4.97327
-4.92424
-4.86965
-4.80918
-4.74251
-4.66932
-4.58931
-4.5022
-4.40765
-4.30535
-4.19499
-4.0763
-3.949
-3.81285
-3.66759
-3.51302
-3.34892
-3.17511
-2.99143
-2.79777
-2.59402
-2.38014
-2.15609
-1.92187
-1.67751
-1.42309
-1.15871
-0.884507
-0.600654
-0.307363
-0.00488159
0.3065
0.626452
0.954619
1.29061
1.63399
1.98432
2.34109
2.70375
3.07173
3.44444
3.82127
4.20156
4.58464
4.96981
5.35639
5.74367
6.13094
6.5175
6.90258
7.28549
7.66553
8.04207
8.41445
8.78205
9.14428
9.50058
9.8504
10.1933
10.5287
10.8563
11.1757
11.4864
11.7883
12.0809
12.3641
12.6374
12.9008
13.1541
13.3973
13.6306
13.8544
14.0688
14.2739
14.4699
14.6569
14.8352
15.0051
15.1666
15.3202
15.4661
15.6046
15.7362
15.8611
15.9797
16.0924
16.1997
16.3018
16.3992
16.4921
16.5808
16.6654
16.7454
16.8214
16.8872
16.9589
16.9522
-4.90831
-4.91014
-4.91279
-4.91623
-4.92045
-4.92499
-4.92935
-4.93328
-4.93671
-4.93965
-4.94219
-4.94441
-4.94636
-4.94813
-4.94977
-4.95133
-4.95284
-4.95436
-4.9559
-4.95749
-4.95916
-4.96092
-4.96279
-4.96479
-4.96692
-4.9692
-4.97165
-4.97427
-4.97708
-4.9801
-4.98331
-4.98676
-4.99043
-4.99435
-4.99852
-5.00296
-5.00768
-5.01268
-5.01797
-5.02358
-5.02949
-5.03572
-5.04227
-5.04915
-5.05635
-5.06388
-5.07172
-5.07987
-5.08832
-5.09705
-5.10604
-5.11526
-5.12469
-5.13429
-5.14401
-5.1538
-5.16362
-5.17339
-5.18305
-5.19252
-5.20171
-5.21053
-5.21886
-5.2266
-5.23362
-5.2398
-5.24497
-5.249
-5.25171
-5.25294
-5.25249
-5.25018
-5.24579
-5.23911
-5.22991
-5.21796
-5.20301
-5.18481
-5.1631
-5.1376
-5.10802
-5.0741
-5.03553
-4.992
-4.94322
-4.88888
-4.82865
-4.76221
-4.68924
-4.60946
-4.52256
-4.42821
-4.3261
-4.21591
-4.09737
-3.97022
-3.8342
-3.68905
-3.53458
-3.37054
-3.19679
-3.01314
-2.81951
-2.61577
-2.4019
-2.17783
-1.94361
-1.69922
-1.44478
-1.18035
-0.906111
-0.6222
-0.328861
-0.0263202
0.285107
0.605109
0.933308
1.26934
1.61276
1.96312
2.31992
2.68262
3.05063
3.42337
3.8002
4.18049
4.56354
4.94868
5.3352
5.72241
6.10962
6.49607
6.881
7.26371
7.64356
8.01988
8.39205
8.75941
9.1214
9.47742
9.82697
10.1695
10.5047
10.832
11.151
11.4615
11.763
12.0553
12.3381
12.6112
12.8743
13.1275
13.3706
13.604
13.8277
14.0421
14.2471
14.4431
14.6302
14.8086
14.9784
15.1401
15.2937
15.4397
15.5784
15.71
15.835
15.9537
16.0665
16.1737
16.2756
16.3727
16.4651
16.553
16.6363
16.7145
16.7879
16.8501
16.9175
16.9047
-4.9088
-4.91074
-4.91356
-4.91728
-4.92193
-4.927
-4.93187
-4.93622
-4.93996
-4.94315
-4.94584
-4.94815
-4.95016
-4.95196
-4.95359
-4.95514
-4.95663
-4.95811
-4.95962
-4.96118
-4.96282
-4.96456
-4.96641
-4.96839
-4.97053
-4.97282
-4.97529
-4.97795
-4.98081
-4.98388
-4.98718
-4.99072
-4.9945
-4.99854
-5.00285
-5.00745
-5.01234
-5.01753
-5.02303
-5.02885
-5.03499
-5.04147
-5.04828
-5.05543
-5.06291
-5.07073
-5.07888
-5.08734
-5.0961
-5.10515
-5.11447
-5.12402
-5.13378
-5.14371
-5.15375
-5.16388
-5.17401
-5.18411
-5.19408
-5.20385
-5.21334
-5.22244
-5.23106
-5.23907
-5.24635
-5.25278
-5.2582
-5.26246
-5.26539
-5.26683
-5.26659
-5.26447
-5.26026
-5.25375
-5.24472
-5.23293
-5.21813
-5.20007
-5.17849
-5.15311
-5.12367
-5.08986
-5.0514
-5.00799
-4.95931
-4.90507
-4.84494
-4.77859
-4.70572
-4.62602
-4.53919
-4.4449
-4.34283
-4.23268
-4.11416
-3.98703
-3.851
-3.70584
-3.55131
-3.38723
-3.2134
-3.02968
-2.83596
-2.63215
-2.41817
-2.19402
-1.95968
-1.71521
-1.46066
-1.19615
-0.921821
-0.637834
-0.344408
-0.0417972
0.269702
0.589764
0.918024
1.2541
1.59757
1.94797
2.3048
2.66751
3.03552
3.40825
3.78505
4.16527
4.54824
4.93326
5.31966
5.70674
6.09377
6.47997
6.8646
7.24699
7.62651
8.00249
8.37429
8.74127
9.10284
9.45844
9.80755
10.1497
10.4843
10.8111
11.1297
11.4397
11.7407
12.0325
12.3149
12.5876
12.8504
13.1032
13.3462
13.5794
13.8031
14.0173
14.2223
14.4182
14.6052
14.7835
14.9534
15.115
15.2688
15.4148
15.5535
15.6852
15.8103
15.929
16.0418
16.1489
16.2507
16.3474
16.4392
16.5263
16.6084
16.6848
16.7557
16.8146
16.8781
16.8605
-4.91201
-4.91401
-4.91693
-4.92083
-4.92581
-4.93128
-4.93655
-4.9412
-4.94516
-4.94846
-4.95121
-4.95351
-4.95548
-4.9572
-4.95875
-4.9602
-4.96159
-4.96298
-4.9644
-4.96589
-4.96745
-4.96913
-4.97093
-4.97288
-4.97499
-4.97728
-4.97976
-4.98244
-4.98534
-4.98846
-4.99183
-4.99545
-4.99933
-5.00349
-5.00793
-5.01267
-5.01771
-5.02307
-5.02875
-5.03477
-5.04111
-5.0478
-5.05483
-5.06221
-5.06993
-5.07799
-5.08638
-5.09509
-5.1041
-5.1134
-5.12295
-5.13275
-5.14274
-5.1529
-5.16317
-5.17351
-5.18386
-5.19415
-5.2043
-5.21425
-5.2239
-5.23316
-5.24191
-5.25005
-5.25745
-5.26397
-5.26948
-5.27381
-5.27681
-5.2783
-5.2781
-5.276
-5.27182
-5.26532
-5.25629
-5.24448
-5.22967
-5.21159
-5.18998
-5.16458
-5.1351
-5.10125
-5.06276
-5.0193
-4.97059
-4.9163
-4.85612
-4.78973
-4.7168
-4.63705
-4.55016
-4.45581
-4.35366
-4.24343
-4.12483
-3.99759
-3.86145
-3.71619
-3.56154
-3.39733
-3.22337
-3.03954
-2.84568
-2.64175
-2.42765
-2.20338
-1.96892
-1.72434
-1.46968
-1.20509
-0.930658
-0.646599
-0.3531
-0.0504401
0.261107
0.581193
0.90948
1.24556
1.58903
1.9394
2.29618
2.65882
3.02676
3.39937
3.77603
4.15607
4.53883
4.92363
5.30979
5.69659
6.08325
6.46901
6.85316
7.23508
7.6141
7.98956
8.3608
8.7272
9.08817
9.44316
9.79163
10.1331
10.4671
10.7932
11.1111
11.4204
11.7208
12.012
12.2938
12.5659
12.8282
13.0807
13.3234
13.5563
13.7797
13.9938
14.1986
14.3943
14.5812
14.7595
14.9293
15.0909
15.2446
15.3907
15.5295
15.6612
15.7863
15.9051
16.0178
16.1248
16.2264
16.3228
16.4141
16.5003
16.5812
16.6559
16.7245
16.7805
16.8405
16.8193
-4.9183
-4.92035
-4.92331
-4.9273
-4.93246
-4.93819
-4.94368
-4.94848
-4.95247
-4.95573
-4.95835
-4.96049
-4.96227
-4.96378
-4.96513
-4.96637
-4.96758
-4.96879
-4.97005
-4.97139
-4.97283
-4.9744
-4.97611
-4.97799
-4.98004
-4.9823
-4.98476
-4.98744
-4.99035
-4.99351
-4.99693
-5.00061
-5.00457
-5.00881
-5.01336
-5.0182
-5.02337
-5.02885
-5.03467
-5.04082
-5.04731
-5.05415
-5.06133
-5.06886
-5.07673
-5.08494
-5.09347
-5.10232
-5.11147
-5.12089
-5.13057
-5.14047
-5.15056
-5.16081
-5.17115
-5.18154
-5.19193
-5.20225
-5.21241
-5.22236
-5.23198
-5.2412
-5.2499
-5.25797
-5.26528
-5.2717
-5.2771
-5.28131
-5.28417
-5.28552
-5.28515
-5.28289
-5.27853
-5.27184
-5.26262
-5.25062
-5.2356
-5.21732
-5.19551
-5.1699
-5.14022
-5.10618
-5.06749
-5.02385
-4.97495
-4.92049
-4.86014
-4.79359
-4.7205
-4.64059
-4.55355
-4.45905
-4.35675
-4.24636
-4.12761
-4.00021
-3.86391
-3.71847
-3.56367
-3.39929
-3.22519
-3.0412
-2.84723
-2.64316
-2.42896
-2.20457
-1.97002
-1.72535
-1.47063
-1.20597
-0.931511
-0.647427
-0.353931
-0.051283
0.260223
0.580256
0.908461
1.24445
1.58779
1.93801
2.29463
2.65707
3.02477
3.39711
3.77345
4.15315
4.53555
4.91997
5.3057
5.69198
6.07802
6.46312
6.8466
7.22784
7.60615
7.98086
8.35133
8.71694
9.07709
9.43123
9.77885
10.1195
10.4526
10.7779
11.0949
11.4033
11.7029
11.9933
12.2743
12.5457
12.8074
13.0594
13.3016
13.5341
13.7572
13.971
14.1755
14.3711
14.5578
14.7359
14.9056
15.0672
15.2208
15.3669
15.5057
15.6375
15.7627
15.8815
15.9942
16.1012
16.2026
16.2987
16.3894
16.4748
16.5546
16.6277
16.6942
16.7476
16.8045
16.7806
-4.92807
-4.93016
-4.93313
-4.9371
-4.94229
-4.94807
-4.95356
-4.95826
-4.96204
-4.965
-4.96727
-4.96903
-4.97042
-4.97156
-4.97254
-4.97345
-4.97434
-4.97528
-4.97629
-4.97741
-4.97866
-4.98006
-4.98163
-4.9834
-4.98536
-4.98755
-4.98995
-4.99261
-4.9955
-4.99866
-5.00209
-5.00579
-5.00978
-5.01407
-5.01866
-5.02356
-5.02877
-5.03431
-5.04018
-5.04638
-5.05292
-5.0598
-5.06701
-5.07457
-5.08246
-5.09067
-5.0992
-5.10803
-5.11714
-5.12652
-5.13613
-5.14595
-5.15593
-5.16605
-5.17625
-5.18648
-5.19668
-5.20678
-5.21673
-5.22642
-5.23578
-5.24471
-5.25311
-5.26087
-5.26785
-5.27393
-5.27898
-5.28283
-5.28532
-5.28629
-5.28555
-5.28291
-5.27816
-5.27109
-5.26148
-5.2491
-5.23371
-5.21506
-5.19288
-5.16692
-5.13689
-5.10251
-5.06349
-5.01954
-4.97034
-4.91557
-4.85497
-4.78813
-4.71482
-4.63467
-4.54742
-4.45269
-4.35018
-4.23957
-4.12062
-3.99302
-3.85654
-3.71091
-3.55595
-3.39141
-3.21717
-3.03306
-2.839
-2.63485
-2.42058
-2.19614
-1.96158
-1.71689
-1.46219
-1.19757
-0.923184
-0.639189
-0.34582
-0.043316
0.268008
0.587845
0.915812
1.25154
1.59459
1.9445
2.30075
2.66279
3.03005
3.4019
3.7777
4.15683
4.53862
4.92239
5.30738
5.69282
6.07797
6.46216
6.84474
7.22503
7.60237
7.97607
8.34551
8.71005
9.06913
9.42219
9.76871
10.1082
10.4403
10.7644
11.0804
11.3878
11.6863
11.9757
12.2558
12.5264
12.7873
13.0386
13.2802
13.5123
13.7349
13.9483
14.1525
14.3478
14.5342
14.7122
14.8817
15.0432
15.1969
15.343
15.4818
15.6137
15.7389
15.8578
15.9706
16.0775
16.1788
16.2746
16.3649
16.4496
16.5283
16.6001
16.6647
16.7159
16.77
16.7444
-4.94226
-4.9444
-4.94734
-4.95118
-4.95617
-4.96171
-4.96686
-4.97107
-4.97425
-4.97654
-4.97812
-4.97919
-4.97992
-4.98045
-4.98088
-4.98128
-4.98173
-4.98227
-4.98293
-4.98375
-4.98473
-4.9859
-4.98728
-4.98887
-4.99069
-4.99275
-4.99506
-4.99763
-5.00045
-5.00354
-5.00691
-5.01056
-5.0145
-5.01874
-5.02327
-5.02811
-5.03325
-5.03871
-5.04448
-5.05058
-5.05699
-5.06373
-5.07079
-5.07817
-5.08586
-5.09386
-5.10214
-5.11071
-5.11953
-5.12859
-5.13786
-5.14731
-5.1569
-5.16659
-5.17634
-5.18611
-5.19582
-5.20542
-5.21484
-5.224
-5.2328
-5.24117
-5.24898
-5.25615
-5.26253
-5.26802
-5.27245
-5.27569
-5.27757
-5.27793
-5.27658
-5.27333
-5.26797
-5.26031
-5.25011
-5.23715
-5.22121
-5.202
-5.17931
-5.15282
-5.12232
-5.08746
-5.04801
-5.00361
-4.954
-4.89887
-4.8379
-4.77078
-4.69716
-4.61675
-4.52922
-4.43423
-4.33146
-4.22064
-4.10146
-3.97367
-3.83701
-3.69124
-3.53613
-3.37149
-3.19717
-3.01303
-2.81894
-2.61481
-2.40058
-2.17622
-1.94174
-1.69719
-1.44264
-1.17823
-0.904077
-0.620369
-0.327327
-0.0252181
0.285673
0.605051
0.932548
1.26777
1.61028
1.95959
2.31521
2.67658
3.04311
3.4142
3.7892
4.16748
4.54836
4.9311
5.31497
5.6992
6.08314
6.46611
6.84743
7.22643
7.60245
7.97481
8.34288
8.70605
9.06374
9.4154
9.76054
10.0987
10.4294
10.7522
11.0669
11.373