/*--------------------------------*- C++ -*----------------------------------*\
| =========                 |                                                 |
| \\      /  F ield         | OpenFOAM: The Open Source CFD Toolbox           |
|  \\    /   O peration     | Version:  2412                                  |
|   \\  /    A nd           | Website:  www.openfoam.com                      |
|    \\/     M anipulation  |                                                 |
\*---------------------------------------------------------------------------*/
FoamFile
{
    version     2.0;
    format      ascii;
    arch        "LSB;label=32;scalar=64";
    class       surfaceScalarField;
    location    "200";
    object      phi;
}
// * * * * * * * * * * * * * * * * * * * * * * * * * * * * * * * * * * * * * //

dimensions      [0 3 -1 0 0 0 0];

oriented        oriented;

internalField   nonuniform List<scalar> 
24170
(
2.12699e-06
1.06142e-06
1.40012e-06
7.26873e-07
1.05879e-06
3.41328e-07
8.82839e-07
1.75958e-07
7.749e-07
1.07941e-07
7.00434e-07
7.44632e-08
6.45847e-07
5.45876e-08
6.05277e-07
4.05674e-08
5.74899e-07
3.03779e-08
5.51856e-07
2.30405e-08
5.3429e-07
1.75655e-08
5.21074e-07
1.32151e-08
5.11539e-07
9.53394e-09
5.05321e-07
6.21715e-09
5.02476e-07
2.84536e-09
5.03621e-07
-1.14562e-09
5.10186e-07
-6.56573e-09
-5.82237e-08
5.68409e-07
3.40052e-06
1.07816e-06
2.94878e-06
1.17864e-06
2.50121e-06
7.88932e-07
2.16003e-06
5.17154e-07
1.92297e-06
3.45027e-07
1.75943e-06
2.38009e-07
1.641e-06
1.73033e-07
1.55131e-06
1.30271e-07
1.48201e-06
9.96842e-08
1.428e-06
7.70663e-08
1.38573e-06
5.98381e-08
1.35285e-06
4.61035e-08
1.32782e-06
3.45684e-08
1.30976e-06
2.42783e-08
1.29837e-06
1.42358e-08
1.29473e-06
2.50321e-09
1.3021e-06
-1.39322e-08
-6.35466e-08
1.30742e-06
3.87972e-06
8.60954e-07
3.84251e-06
1.21585e-06
3.63638e-06
9.9506e-07
3.3756e-06
7.77939e-07
3.12726e-06
5.93366e-07
2.92013e-06
4.45133e-07
2.75531e-06
3.3786e-07
2.62456e-06
2.61019e-07
2.52021e-06
2.04024e-07
2.43654e-06
1.60733e-07
2.36932e-06
1.27065e-07
2.31548e-06
9.99364e-08
2.27293e-06
7.71172e-08
2.24034e-06
5.68734e-08
2.217e-06
3.75764e-08
2.20294e-06
1.6563e-08
2.19811e-06
-9.11235e-09
-5.25163e-08
2.18708e-06
4.11751e-06
6.6883e-07
4.26004e-06
1.0733e-06
4.27646e-06
9.78629e-07
4.20681e-06
8.47589e-07
4.08278e-06
7.174e-07
3.93941e-06
5.88501e-07
3.79964e-06
4.77641e-07
3.67277e-06
3.87892e-07
3.56159e-06
3.15209e-07
3.46619e-06
2.56132e-07
3.38547e-06
2.07786e-07
3.31795e-06
1.67459e-07
3.26225e-06
1.32817e-07
3.21729e-06
1.01842e-07
3.18223e-06
7.26368e-08
3.15617e-06
4.26233e-08
3.13721e-06
9.84164e-09
-3.1629e-08
3.11633e-06
4.35355e-06
5.22408e-07
4.51329e-06
9.13546e-07
4.60511e-06
8.86806e-07
4.6523e-06
8.00395e-07
4.65368e-06
7.16021e-07
4.61877e-06
6.23403e-07
4.56265e-06
5.33762e-07
4.49623e-06
4.54304e-07
4.42661e-06
3.84828e-07
4.35852e-06
3.24227e-07
4.29483e-06
2.71472e-07
4.2371e-06
2.25187e-07
4.18608e-06
1.83831e-07
4.14208e-06
1.45844e-07
4.105e-06
1.09721e-07
4.07413e-06
7.34842e-08
4.04751e-06
3.64638e-08
-4.37981e-09
4.02026e-06
4.62729e-06
4.04194e-07
4.7587e-06
7.82102e-07
4.85228e-06
7.93203e-07
4.92586e-06
7.26798e-07
4.97882e-06
6.63053e-07
5.009e-06
5.93213e-07
5.02051e-06
5.22242e-07
5.01798e-06
4.56835e-07
5.00511e-06
3.9769e-07
4.98535e-06
3.43987e-07
4.96165e-06
2.95172e-07
4.93627e-06
2.50562e-07
4.91084e-06
2.09255e-07
4.88646e-06
1.70218e-07
4.86367e-06
1.32512e-07
4.84224e-06
9.49138e-08
4.821e-06
5.77033e-08
1.94242e-08
4.79719e-06
4.92555e-06
3.11363e-07
5.03609e-06
6.7156e-07
5.12245e-06
7.06838e-07
5.19061e-06
6.58633e-07
5.24818e-06
6.05485e-07
5.29414e-06
5.47246e-07
5.32972e-06
4.8666e-07
5.35679e-06
4.29765e-07
5.37644e-06
3.78034e-07
5.38977e-06
3.30653e-07
5.39802e-06
2.86916e-07
5.40236e-06
2.46227e-07
5.40372e-06
2.07889e-07
5.40279e-06
1.71149e-07
5.39988e-06
1.35413e-07
5.39475e-06
1.00049e-07
5.38674e-06
6.57063e-08
3.20807e-08
5.37408e-06
5.24714e-06
2.43801e-07
5.35124e-06
5.67444e-07
5.43458e-06
6.23487e-07
5.49745e-06
5.95753e-07
5.55034e-06
5.52582e-07
5.59483e-06
5.02748e-07
5.63227e-06
4.49209e-07
5.66445e-06
3.97582e-07
5.6923e-06
3.50174e-07
5.71631e-06
3.06634e-07
5.73692e-06
2.66304e-07
5.7545e-06
2.28645e-07
5.7693e-06
1.93077e-07
5.78143e-06
1.59019e-07
5.79077e-06
1.26071e-07
5.79684e-06
9.39715e-08
5.79921e-06
6.33306e-08
3.45418e-08
5.79675e-06
5.60155e-06
1.9359e-07
5.69924e-06
4.69755e-07
5.77976e-06
5.42968e-07
5.84198e-06
5.33537e-07
5.89346e-06
5.01107e-07
5.93673e-06
4.59472e-07
5.97336e-06
4.12576e-07
6.00516e-06
3.65778e-07
6.0334e-06
3.2194e-07
6.0587e-06
2.81325e-07
6.08147e-06
2.43528e-07
6.10195e-06
2.08163e-07
6.12021e-06
1.74818e-07
6.13614e-06
1.43085e-07
6.14949e-06
1.12717e-07
6.1598e-06
8.36628e-08
6.16673e-06
5.63923e-08
3.15048e-08
6.16977e-06
5.98942e-06
1.53945e-07
6.07546e-06
3.83726e-07
6.15265e-06
4.65774e-07
6.21577e-06
4.7042e-07
6.26855e-06
4.4832e-07
6.3131e-06
4.14916e-07
6.35081e-06
3.74858e-07
6.38335e-06
3.33235e-07
6.41208e-06
2.93211e-07
6.4378e-06
2.55596e-07
6.461e-06
2.20327e-07
6.48195e-06
1.87208e-07
6.50075e-06
1.56016e-07
6.51732e-06
1.26509e-07
6.53146e-06
9.85736e-08
6.54286e-06
7.22602e-08
6.55133e-06
4.792e-08
2.60851e-08
6.55675e-06
6.40858e-06
1.22176e-07
6.48166e-06
3.10657e-07
6.55405e-06
3.93399e-07
6.61705e-06
4.0742e-07
6.67145e-06
3.9392e-07
6.71831e-06
3.68061e-07
6.75843e-06
3.34741e-07
6.79309e-06
2.98574e-07
6.82353e-06
2.62767e-07
6.8506e-06
2.28523e-07
6.87483e-06
1.96094e-07
6.89655e-06
1.65487e-07
6.9159e-06
1.36655e-07
6.93291e-06
1.09503e-07
6.94746e-06
8.40232e-08
6.95941e-06
6.0308e-08
6.9687e-06
3.86207e-08
1.93482e-08
6.97544e-06
5.76311e-06
9.99005e-08
5.81543e-06
2.58354e-07
5.87207e-06
3.36772e-07
5.92399e-06
3.55505e-07
5.97025e-06
3.47664e-07
6.01114e-06
3.27166e-07
6.04689e-06
2.98991e-07
6.07814e-06
2.67331e-07
6.10566e-06
2.35241e-07
6.1301e-06
2.04082e-07
6.15188e-06
1.74307e-07
6.1713e-06
1.46072e-07
6.1885e-06
1.19448e-07
6.20356e-06
9.4447e-08
6.21646e-06
7.11199e-08
6.22719e-06
4.95793e-08
6.23579e-06
3.00234e-08
1.27477e-08
6.24239e-06
7.01931e-06
7.87495e-08
7.07053e-06
2.07145e-07
7.12967e-06
2.77643e-07
7.18639e-06
2.98785e-07
7.23867e-06
2.95394e-07
7.28611e-06
2.79725e-07
7.32849e-06
2.56615e-07
7.36611e-06
2.29708e-07
7.39958e-06
2.01773e-07
7.42943e-06
1.74231e-07
7.45606e-06
1.47675e-07
7.47976e-06
1.22372e-07
7.50072e-06
9.84887e-08
7.51905e-06
7.61156e-08
7.53482e-06
5.53521e-08
7.54808e-06
3.63114e-08
7.55897e-06
1.91347e-08
4.03851e-09
7.56768e-06
8.55051e-06
5.90899e-08
8.59951e-06
1.58157e-07
8.65981e-06
2.17352e-07
8.72032e-06
2.38274e-07
8.77788e-06
2.37843e-07
8.83144e-06
2.26169e-07
8.88033e-06
2.07725e-07
8.92451e-06
1.85528e-07
8.96432e-06
1.61963e-07
9.00014e-06
1.3841e-07
9.03228e-06
1.15532e-07
9.061e-06
9.36612e-08
9.08647e-06
7.30187e-08
9.10884e-06
5.37428e-08
9.12824e-06
3.59498e-08
9.14481e-06
1.97435e-08
9.15873e-06
5.20999e-09
-7.4891e-09
9.17026e-06
1.04172e-05
4.11365e-08
1.04634e-05
1.11956e-07
1.05238e-05
1.56974e-07
1.05873e-05
1.74769e-07
1.06496e-05
1.75547e-07
1.07089e-05
1.66859e-07
1.07641e-05
1.52493e-07
1.08148e-05
1.34825e-07
1.08611e-05
1.1573e-07
1.0903e-05
9.64396e-08
1.0941e-05
7.76039e-08
1.0975e-05
5.95832e-08
1.10055e-05
4.26024e-08
1.10324e-05
2.68212e-08
1.1056e-05
1.23457e-08
1.10765e-05
-7.3704e-10
1.10941e-05
-1.23884e-08
-2.24849e-08
1.11091e-05
1.26932e-05
2.47445e-08
1.27368e-05
6.83355e-08
1.27968e-05
9.69738e-08
1.2863e-05
1.08623e-07
1.29299e-05
1.08591e-07
1.29951e-05
1.01689e-07
1.30569e-05
9.06904e-08
1.31145e-05
7.72599e-08
1.31675e-05
6.27001e-08
1.3216e-05
4.79356e-08
1.32601e-05
3.35163e-08
1.32999e-05
1.97519e-08
1.33357e-05
6.84561e-09
1.33676e-05
-5.06914e-09
1.33958e-05
-1.5901e-08
1.34207e-05
-2.55935e-08
1.34424e-05
-3.41338e-08
-4.14325e-08
1.34614e-05
1.54686e-05
9.31263e-09
1.5511e-05
2.59994e-08
1.55716e-05
3.63839e-08
1.56411e-05
3.90489e-08
1.57136e-05
3.60836e-08
1.57856e-05
2.96987e-08
1.5855e-05
2.13202e-08
1.59205e-05
1.18071e-08
1.59813e-05
1.82655e-09
1.60374e-05
-8.12008e-09
1.60886e-05
-1.77122e-08
1.61351e-05
-2.67593e-08
1.61771e-05
-3.51369e-08
1.62148e-05
-4.27608e-08
1.62485e-05
-4.95767e-08
1.62784e-05
-5.55536e-08
1.6305e-05
-6.06976e-08
-6.49403e-08
1.63285e-05
1.88534e-05
-6.4079e-09
1.88977e-05
-1.83596e-08
1.89628e-05
-2.86474e-08
1.90394e-05
-3.75358e-08
1.91207e-05
-4.52259e-08
1.92024e-05
-5.20519e-08
1.9282e-05
-5.82385e-08
1.93577e-05
-6.38854e-08
1.94285e-05
-6.90296e-08
1.94941e-05
-7.36953e-08
1.95543e-05
-7.7898e-08
1.96092e-05
-8.16408e-08
1.96589e-05
-8.49168e-08
1.97039e-05
-8.77161e-08
1.97443e-05
-9.00308e-08
1.97806e-05
-9.18557e-08
1.98131e-05
-9.32055e-08
-9.40234e-08
1.98422e-05
2.29824e-05
-2.54517e-08
2.30367e-05
-7.27024e-08
2.31163e-05
-1.08244e-07
2.32098e-05
-1.30968e-07
2.33086e-05
-1.44051e-07
2.34077e-05
-1.51128e-07
2.35039e-05
-1.54473e-07
2.35954e-05
-1.55318e-07
2.36809e-05
-1.5453e-07
2.37599e-05
-1.52784e-07
2.38325e-05
-1.50506e-07
2.38988e-05
-1.47934e-07
2.39591e-05
-1.45193e-07
2.40137e-05
-1.42354e-07
2.40632e-05
-1.39451e-07
2.41078e-05
-1.36494e-07
2.41481e-05
-1.33495e-07
-1.30396e-07
2.41845e-05
1.68288e-05
-4.35724e-08
1.68786e-05
-1.22435e-07
1.69487e-05
-1.78308e-07
1.70275e-05
-2.09739e-07
1.7108e-05
-2.24571e-07
1.71868e-05
-2.29972e-07
1.72621e-05
-2.29708e-07
1.73325e-05
-2.25738e-07
1.73976e-05
-2.196e-07
1.74572e-05
-2.12428e-07
1.75116e-05
-2.04902e-07
1.7561e-05
-1.97361e-07
1.76058e-05
-1.89995e-07
1.76464e-05
-1.82899e-07
1.7683e-05
-1.76112e-07
1.77161e-05
-1.69633e-07
1.77461e-05
-1.6345e-07
-1.57492e-07
1.77732e-05
1.46565e-05
-6.54638e-08
1.4715e-05
-1.8094e-07
1.4793e-05
-2.56338e-07
1.48758e-05
-2.92448e-07
1.49567e-05
-3.05515e-07
1.50337e-05
-3.06941e-07
1.51054e-05
-3.01397e-07
1.51711e-05
-2.91432e-07
1.52307e-05
-2.79237e-07
1.52846e-05
-2.66345e-07
1.53333e-05
-2.53526e-07
1.53771e-05
-2.41151e-07
1.54165e-05
-2.29406e-07
1.54519e-05
-2.18377e-07
1.54839e-05
-2.08069e-07
1.55127e-05
-1.98446e-07
1.55387e-05
-1.89454e-07
-1.80992e-07
1.55622e-05
1.27684e-05
-9.36868e-08
1.28414e-05
-2.5394e-07
1.29311e-05
-3.46061e-07
1.30194e-05
-3.80753e-07
1.31016e-05
-3.87643e-07
1.3177e-05
-3.8232e-07
1.3245e-05
-3.69413e-07
1.33056e-05
-3.52028e-07
1.33594e-05
-3.33041e-07
1.34072e-05
-3.14163e-07
1.34498e-05
-2.96087e-07
1.34877e-05
-2.79099e-07
1.35216e-05
-2.63322e-07
1.3552e-05
-2.48774e-07
1.35793e-05
-2.35386e-07
1.36039e-05
-2.23059e-07
1.36262e-05
-2.1168e-07
-2.01096e-07
1.36463e-05
1.11282e-05
-1.30923e-07
1.12219e-05
-3.47645e-07
1.13243e-05
-4.48455e-07
1.14166e-05
-4.73062e-07
1.14978e-05
-4.6882e-07
1.15693e-05
-4.53868e-07
1.16317e-05
-4.31809e-07
1.1686e-05
-4.06278e-07
1.17335e-05
-3.80548e-07
1.17754e-05
-3.56086e-07
1.18126e-05
-3.33288e-07
1.18458e-05
-3.12269e-07
1.18755e-05
-2.93047e-07
1.19022e-05
-2.7553e-07
1.19264e-05
-2.59566e-07
1.19483e-05
-2.44983e-07
1.19683e-05
-2.3161e-07
-2.19255e-07
1.19864e-05
9.70634e-06
-1.82048e-07
9.82494e-06
-4.6625e-07
9.936e-06
-5.59506e-07
1.00276e-05
-5.64664e-07
1.01056e-05
-5.46859e-07
1.01732e-05
-5.214e-07
1.02313e-05
-4.8998e-07
1.02819e-05
-4.5686e-07
1.03266e-05
-4.25198e-07
1.03663e-05
-3.95808e-07
1.04017e-05
-3.68732e-07
1.04334e-05
-3.43964e-07
1.04618e-05
-3.21434e-07
1.04873e-05
-3.00973e-07
1.051e-05
-2.82364e-07
1.05305e-05
-2.65423e-07
1.05488e-05
-2.49915e-07
-2.35784e-07
1.05653e-05
8.48068e-06
-2.57373e-07
8.62068e-06
-6.06259e-07
8.73663e-06
-6.75476e-07
8.82855e-06
-6.56589e-07
8.90922e-06
-6.27534e-07
8.9797e-06
-5.91881e-07
9.04036e-06
-5.50639e-07
9.09275e-06
-5.09252e-07
9.13783e-06
-4.70279e-07
9.17602e-06
-4.34001e-07
9.20779e-06
-4.00497e-07
9.23369e-06
-3.69871e-07
9.25432e-06
-3.42068e-07
9.27025e-06
-3.16903e-07
9.28202e-06
-2.94129e-07
9.29016e-06
-2.73571e-07
9.29515e-06
-2.54908e-07
-2.38344e-07
9.29771e-06
7.42403e-06
-3.64117e-07
7.5895e-06
-7.71741e-07
7.71855e-06
-8.04531e-07
7.8248e-06
-7.62852e-07
7.91459e-06
-7.17338e-07
7.98342e-06
-6.60713e-07
8.03173e-06
-5.98952e-07
8.06217e-06
-5.39695e-07
8.07697e-06
-4.85081e-07
8.07842e-06
-4.3545e-07
8.06897e-06
-3.91048e-07
8.05094e-06
-3.51841e-07
8.0263e-06
-3.17426e-07
7.99668e-06
-2.87278e-07
7.9634e-06
-2.60853e-07
7.92753e-06
-2.37695e-07
7.8899e-06
-2.17283e-07
-1.99634e-07
7.85119e-06
6.52289e-06
-5.16947e-07
6.72795e-06
-9.76812e-07
6.87013e-06
-9.46723e-07
6.95655e-06
-8.49286e-07
6.98532e-06
-7.46105e-07
6.96379e-06
-6.39191e-07
6.90736e-06
-5.42527e-07
6.82897e-06
-4.613e-07
6.7375e-06
-3.9361e-07
6.63932e-06
-3.37275e-07
6.53897e-06
-2.90694e-07
6.43943e-06
-2.523e-07
6.34258e-06
-2.20568e-07
6.24949e-06
-1.94196e-07
6.16078e-06
-1.72141e-07
6.07666e-06
-1.53571e-07
5.99721e-06
-1.37829e-07
-1.24396e-07
5.92197e-06
5.80568e-06
-7.77163e-07
5.95921e-06
-1.13035e-06
5.94699e-06
-9.34525e-07
5.81542e-06
-7.17729e-07
5.61571e-06
-5.46398e-07
5.39336e-06
-4.16853e-07
5.17567e-06
-3.24835e-07
4.97396e-06
-2.5959e-07
4.79166e-06
-2.11315e-07
4.62898e-06
-1.7459e-07
4.48462e-06
-1.46329e-07
4.35663e-06
-1.24315e-07
4.24297e-06
-1.06897e-07
4.14168e-06
-9.29035e-08
4.05106e-06
-8.15211e-08
3.96959e-06
-7.21018e-08
3.89608e-06
-6.43123e-08
-5.74881e-08
3.82917e-06
5.04143e-06
-9.90993e-07
4.7531e-06
-8.42027e-07
4.31632e-06
-4.97764e-07
3.88713e-06
-2.88548e-07
3.5239e-06
-1.83169e-07
3.23699e-06
-1.29943e-07
3.01288e-06
-1.00727e-07
2.8345e-06
-8.12179e-08
2.68939e-06
-6.61984e-08
2.56923e-06
-5.44265e-08
2.46819e-06
-4.52887e-08
2.38205e-06
-3.81787e-08
2.30775e-06
-3.25896e-08
2.24299e-06
-2.81396e-08
2.18603e-06
-2.45632e-08
2.13554e-06
-2.16056e-08
2.09047e-06
-1.92371e-08
-1.70138e-08
2.05e-06
3.21168e-06
2.36966e-06
1.87189e-06
1.58334e-06
1.40017e-06
1.27023e-06
1.1695e-06
1.08829e-06
1.02209e-06
9.67661e-07
9.22373e-07
8.84194e-07
8.51605e-07
8.23465e-07
7.98902e-07
7.77297e-07
7.5806e-07
7.41047e-07
4.47287e-10
-4.50303e-10
1.60247e-09
-1.16142e-09
3.23133e-09
-1.63489e-09
5.07791e-09
-1.85267e-09
6.92452e-09
-1.8526e-09
8.59703e-09
-1.67862e-09
9.96787e-09
-1.37694e-09
1.09537e-08
-9.92137e-10
1.15115e-08
-5.6415e-10
1.16303e-08
-1.25225e-10
1.13232e-08
3.00567e-10
1.06196e-08
6.97186e-10
9.55769e-09
1.05534e-09
8.17984e-09
1.37138e-09
6.52811e-09
1.64527e-09
4.64163e-09
1.88003e-09
2.55562e-09
2.07963e-09
3.00513e-10
2.24859e-09
-2.09694e-09
2.39091e-09
-4.61526e-09
2.51152e-09
-7.23756e-09
2.61538e-09
-9.9542e-09
2.70924e-09
-1.27606e-08
2.79859e-09
-1.56583e-08
2.88937e-09
-1.86524e-08
2.98509e-09
-2.17518e-08
3.08989e-09
-2.49673e-08
3.20533e-09
-2.83118e-08
3.33408e-09
-3.17992e-08
3.47637e-09
-3.54443e-08
3.63411e-09
-3.92626e-08
3.80681e-09
-4.32698e-08
3.99605e-09
-4.74825e-08
4.20095e-09
-5.19166e-08
4.42306e-09
-5.65895e-08
4.66136e-09
-6.1518e-08
4.91756e-09
-6.67205e-08
5.19099e-09
-7.2215e-08
5.48368e-09
-7.80213e-08
5.7948e-09
-8.41582e-08
6.12624e-09
-9.06464e-08
6.477e-09
-9.75058e-08
6.84913e-09
-1.04758e-07
7.2416e-09
-1.12424e-07
7.65649e-09
-1.20527e-07
8.09243e-09
-1.29088e-07
8.55162e-09
-1.38131e-07
9.03239e-09
-1.47677e-07
9.53716e-09
-1.57751e-07
1.00636e-08
-1.68375e-07
1.06143e-08
-1.79574e-07
1.11864e-08
-1.91367e-07
1.17819e-08
-2.03778e-07
1.2397e-08
-2.16826e-07
1.30342e-08
-2.30531e-07
1.36895e-08
-2.44912e-07
1.43653e-08
-2.59987e-07
1.5056e-08
-2.75768e-07
1.57646e-08
-2.92274e-07
1.64857e-08
-3.09513e-07
1.72206e-08
-3.27498e-07
1.79626e-08
-3.46231e-07
1.87136e-08
-3.65718e-07
1.94662e-08
-3.85959e-07
2.0222e-08
-4.06954e-07
2.0973e-08
-4.28693e-07
2.17209e-08
-4.51171e-07
2.2457e-08
-4.74372e-07
2.31828e-08
-4.9828e-07
2.38891e-08
-5.22871e-07
2.45771e-08
-5.48125e-07
2.52375e-08
-5.74008e-07
2.58715e-08
-6.00491e-07
2.64693e-08
-6.27533e-07
2.70318e-08
-6.55096e-07
2.75485e-08
-6.8313e-07
2.80219e-08
-7.1159e-07
2.84429e-08
-7.40418e-07
2.88147e-08
-7.69561e-07
2.91281e-08
-7.98958e-07
2.93859e-08
-8.28551e-07
2.95782e-08
-8.58269e-07
2.97083e-08
-8.88047e-07
2.9767e-08
-9.17814e-07
2.97577e-08
-9.47499e-07
2.96714e-08
-9.77019e-07
2.95122e-08
-1.0063e-06
2.9271e-08
-1.03524e-06
2.89499e-08
-1.06376e-06
2.85415e-08
-1.09178e-06
2.80557e-08
-1.11923e-06
2.7486e-08
-1.14604e-06
2.68317e-08
-1.17212e-06
2.60901e-08
-1.19738e-06
2.52617e-08
-1.22172e-06
2.43469e-08
-1.24506e-06
2.33466e-08
-1.26732e-06
2.22619e-08
-1.28842e-06
2.10936e-08
-1.30827e-06
1.98443e-08
-1.3268e-06
1.8514e-08
-1.34392e-06
1.71077e-08
-1.35958e-06
1.56228e-08
-1.3737e-06
1.40689e-08
-1.3862e-06
1.24374e-08
-1.397e-06
1.0745e-08
-1.40605e-06
8.97617e-09
-1.41324e-06
7.14706e-09
-1.41852e-06
5.22662e-09
-1.42176e-06
3.21803e-09
-1.4229e-06
1.11317e-09
-1.42191e-06
-9.96505e-10
-1.41885e-06
-3.06515e-09
-1.41374e-06
-5.09271e-09
-1.40661e-06
-7.12709e-09
-1.39742e-06
-9.15921e-09
-1.38619e-06
-1.12013e-08
-1.37291e-06
-1.32386e-08
-1.3576e-06
-1.52799e-08
-1.34023e-06
-1.73089e-08
-1.32085e-06
-1.9329e-08
-1.29947e-06
-2.13293e-08
-1.27612e-06
-2.33095e-08
-1.25082e-06
-2.52593e-08
-1.2236e-06
-2.71746e-08
-1.19451e-06
-2.90459e-08
-1.16359e-06
-3.08705e-08
-1.13089e-06
-3.26391e-08
-1.09648e-06
-3.43458e-08
-1.06043e-06
-3.59925e-08
-1.0228e-06
-3.75711e-08
-9.83658e-07
-3.90836e-08
-9.43081e-07
-4.05161e-08
-9.01164e-07
-4.18671e-08
-8.57993e-07
-4.31172e-08
-8.13682e-07
-4.42717e-08
-7.68318e-07
-4.53245e-08
-7.22008e-07
-4.62854e-08
-6.74846e-07
-4.71422e-08
-6.26942e-07
-4.79024e-08
-5.7839e-07
-4.8558e-08
-5.29292e-07
-4.91116e-08
-4.79745e-07
-4.95573e-08
-4.2986e-07
-4.9893e-08
-3.79749e-07
-5.01143e-08
-3.29534e-07
-5.02166e-08
-2.79342e-07
-5.01889e-08
-2.29324e-07
-5.00153e-08
-1.79646e-07
-4.96718e-08
-1.30507e-07
-4.91323e-08
-8.21205e-08
-4.8378e-08
-3.46878e-08
-4.74246e-08
1.1617e-08
-4.62947e-08
5.64827e-08
-4.48566e-08
9.97542e-08
-4.32608e-08
1.41447e-07
-4.16825e-08
1.81641e-07
-4.01825e-08
2.20387e-07
-3.87351e-08
2.57714e-07
-3.73133e-08
2.93623e-07
-3.5896e-08
3.28113e-07
-3.44742e-08
3.61172e-07
-3.30431e-08
3.92796e-07
-3.16048e-08
4.22975e-07
-3.01595e-08
4.51713e-07
-2.87132e-08
4.79007e-07
-2.72698e-08
5.04873e-07
-2.58365e-08
5.2932e-07
-2.4417e-08
5.5237e-07
-2.30152e-08
5.74035e-07
-2.1629e-08
5.94329e-07
-2.02531e-08
6.13244e-07
-1.88746e-08
6.30755e-07
-1.74636e-08
6.46769e-07
-1.59681e-08
6.61112e-07
-1.42904e-08
6.73439e-07
-1.22778e-08
6.83054e-07
-9.55984e-09
6.88764e-07
-5.6603e-09
6.87067e-07
1.75046e-09
6.75973e-07
1.11407e-08
4.84318e-08
6.27584e-07
9.28828e-10
-1.38569e-09
2.92828e-09
-3.17494e-09
5.47824e-09
-4.19789e-09
8.1182e-09
-4.50608e-09
1.0484e-08
-4.23085e-09
1.23047e-08
-3.51238e-09
1.34005e-08
-2.48507e-09
1.36644e-08
-1.26923e-09
1.30535e-08
3.42565e-11
1.15691e-08
1.34592e-09
9.24905e-09
2.60787e-09
6.15107e-09
3.78197e-09
2.34719e-09
4.84665e-09
-2.08778e-09
5.79334e-09
-7.07798e-09
6.62328e-09
-1.25552e-08
7.3444e-09
-1.84563e-08
7.9689e-09
-2.47316e-08
8.51096e-09
-3.13377e-08
8.9853e-09
-3.82462e-08
9.40635e-09
-4.5432e-08
9.78896e-09
-5.28857e-08
1.0148e-08
-6.05986e-08
1.0498e-08
-6.85778e-08
1.08515e-08
-7.68275e-08
1.12195e-08
-8.53674e-08
1.16106e-08
-9.42108e-08
1.20317e-08
-1.03386e-07
1.24877e-08
-1.1291e-07
1.29825e-08
-1.22817e-07
1.35185e-08
-1.33127e-07
1.4098e-08
-1.43875e-07
1.47219e-08
-1.55085e-07
1.53914e-08
-1.66791e-07
1.61069e-08
-1.79017e-07
1.68691e-08
-1.918e-07
1.76783e-08
-2.05163e-07
1.85355e-08
-2.19142e-07
1.94416e-08
-2.33763e-07
2.03976e-08
-2.49062e-07
2.14036e-08
-2.65062e-07
2.24598e-08
-2.81799e-07
2.35662e-08
-2.99297e-07
2.47229e-08
-3.1759e-07
2.59295e-08
-3.36698e-07
2.71858e-08
-3.56656e-07
2.84905e-08
-3.7748e-07
2.98431e-08
-3.99204e-07
3.12418e-08
-4.2184e-07
3.26858e-08
-4.45418e-07
3.41723e-08
-4.69947e-07
3.56994e-08
-4.95451e-07
3.72632e-08
-5.21933e-07
3.88606e-08
-5.4941e-07
4.04864e-08
-5.77879e-07
4.21373e-08
-6.0735e-07
4.38069e-08
-6.37806e-07
4.5489e-08
-6.69249e-07
4.71753e-08
-7.0165e-07
4.88603e-08
-7.34999e-07
5.0536e-08
-7.6926e-07
5.21962e-08
-8.04413e-07
5.38318e-08
-8.4041e-07
5.54356e-08
-8.7722e-07
5.69979e-08
-9.14784e-07
5.85112e-08
-9.53062e-07
5.99652e-08
-9.91983e-07
6.13524e-08
-1.03149e-06
6.26623e-08
-1.07151e-06
6.38874e-08
-1.11198e-06
6.50171e-08
-1.1528e-06
6.60445e-08
-1.19391e-06
6.69598e-08
-1.23521e-06
6.77576e-08
-1.27663e-06
6.84287e-08
-1.31806e-06
6.8967e-08
-1.35943e-06
6.93645e-08
-1.40062e-06
6.96181e-08
-1.44154e-06
6.97197e-08
-1.4821e-06
6.96661e-08
-1.52218e-06
6.94512e-08
-1.56169e-06
6.90731e-08
-1.60052e-06
6.85255e-08
-1.63857e-06
6.78077e-08
-1.67575e-06
6.69152e-08
-1.71194e-06
6.58488e-08
-1.74704e-06
6.46049e-08
-1.78096e-06
6.31846e-08
-1.81359e-06
6.15849e-08
-1.84483e-06
5.98105e-08
-1.87458e-06
5.78593e-08
-1.90279e-06
5.5733e-08
-1.92937e-06
5.34309e-08
-1.95422e-06
5.09541e-08
-1.97726e-06
4.83092e-08
-1.99841e-06
4.54983e-08
-2.01759e-06
4.25281e-08
-2.03474e-06
3.9401e-08
-2.04977e-06
3.61245e-08
-2.06265e-06
3.27016e-08
-2.0733e-06
2.91408e-08
-2.08167e-06
2.54457e-08
-2.08772e-06
2.16234e-08
-2.0914e-06
1.76788e-08
-2.09266e-06
1.36195e-08
-2.09145e-06
9.45185e-09
-2.08773e-06
5.18012e-09
-2.08146e-06
8.14641e-10
-2.07268e-06
-3.60723e-09
-2.06143e-06
-8.0637e-09
-2.04778e-06
-1.25584e-08
-2.03171e-06
-1.70825e-08
-2.01314e-06
-2.16307e-08
-1.99204e-06
-2.61848e-08
-1.9684e-06
-3.07409e-08
-1.94224e-06
-3.52935e-08
-1.91357e-06
-3.98362e-08
-1.88241e-06
-4.43583e-08
-1.84878e-06
-4.88526e-08
-1.81273e-06
-5.33068e-08
-1.77428e-06
-5.77136e-08
-1.73349e-06
-6.20619e-08
-1.69041e-06
-6.63425e-08
-1.64508e-06
-7.05402e-08
-1.59756e-06
-7.4642e-08
-1.54792e-06
-7.86334e-08
-1.49622e-06
-8.25059e-08
-1.44255e-06
-8.62429e-08
-1.38699e-06
-8.98344e-08
-1.32963e-06
-9.32761e-08
-1.27057e-06
-9.65601e-08
-1.20991e-06
-9.96793e-08
-1.14774e-06
-1.02618e-07
-1.08418e-06
-1.05362e-07
-1.01934e-06
-1.07897e-07
-9.53351e-07
-1.10215e-07
-8.86321e-07
-1.12314e-07
-8.18378e-07
-1.14197e-07
-7.49644e-07
-1.15858e-07
-6.80248e-07
-1.17296e-07
-6.10309e-07
-1.18506e-07
-5.3995e-07
-1.19485e-07
-4.6929e-07
-1.20228e-07
-3.9846e-07
-1.20729e-07
-3.27596e-07
-1.20981e-07
-2.56838e-07
-1.20974e-07
-1.86333e-07
-1.2069e-07
-1.1624e-07
-1.20102e-07
-4.67271e-08
-1.19176e-07
2.20183e-08
-1.17868e-07
8.9783e-08
-1.16131e-07
1.5634e-07
-1.1397e-07
2.21597e-07
-1.11538e-07
2.85619e-07
-1.08866e-07
3.48383e-07
-1.06011e-07
4.09834e-07
-1.0312e-07
4.69925e-07
-1.00258e-07
5.28626e-07
-9.74211e-08
5.85911e-07
-9.458e-08
6.41744e-07
-9.1711e-08
6.96089e-07
-8.8797e-08
7.48903e-07
-8.58346e-08
8.00146e-07
-8.28214e-08
8.49779e-07
-7.97638e-08
8.97767e-07
-7.66679e-08
9.44079e-07
-7.35469e-08
9.88693e-07
-7.04097e-08
1.03159e-06
-6.72693e-08
1.07275e-06
-6.41292e-08
1.11217e-06
-6.09906e-08
1.14981e-06
-5.78384e-08
1.18564e-06
-5.46472e-08
1.2196e-06
-5.13516e-08
1.25155e-06
-4.78452e-08
1.28126e-06
-4.39304e-08
1.30835e-06
-3.92801e-08
1.33213e-06
-3.32597e-08
1.35122e-06
-2.46724e-08
1.36419e-06
-1.11318e-08
1.36506e-06
1.03458e-08
6.16539e-08
1.35192e-06
9.14191e-10
-2.30622e-09
2.71908e-09
-4.99332e-09
4.76407e-09
-6.25522e-09
6.50953e-09
-6.2638e-09
7.57659e-09
-5.30903e-09
7.73315e-09
-3.68023e-09
6.866e-09
-1.62832e-09
4.93883e-09
6.47199e-10
1.96797e-09
2.99497e-09
-2.00138e-09
5.30489e-09
-6.9045e-09
7.50113e-09
-1.26686e-08
9.53608e-09
-1.92162e-08
1.13848e-08
-2.64724e-08
1.304e-08
-3.4366e-08
1.45078e-08
-4.28346e-08
1.58037e-08
-5.18235e-08
1.69491e-08
-6.12904e-08
1.79686e-08
-7.12006e-08
1.8887e-08
-8.15324e-08
1.97286e-08
-9.22686e-08
2.05163e-08
-1.03403e-07
2.12724e-08
-1.14932e-07
2.20176e-08
-1.26863e-07
2.27708e-08
-1.39203e-07
2.35484e-08
-1.5197e-07
2.43642e-08
-1.65179e-07
2.52292e-08
-1.78858e-07
2.61521e-08
-1.93028e-07
2.71395e-08
-2.07721e-07
2.81962e-08
-2.22962e-07
2.93257e-08
-2.38785e-07
3.05302e-08
-2.55219e-07
3.18114e-08
-2.72297e-07
3.31702e-08
-2.90049e-07
3.46071e-08
-3.08507e-07
3.61223e-08
-3.27701e-07
3.77158e-08
-3.47661e-07
3.93876e-08
-3.68414e-07
4.11375e-08
-3.89989e-07
4.29646e-08
-4.12409e-07
4.48672e-08
-4.357e-07
4.68437e-08
-4.5988e-07
4.8892e-08
-4.84973e-07
5.10096e-08
-5.10991e-07
5.31932e-08
-5.37952e-07
5.54389e-08
-5.65861e-07
5.77424e-08
-5.9473e-07
6.00988e-08
-6.24558e-07
6.2503e-08
-6.55346e-07
6.49487e-08
-6.87087e-07
6.74289e-08
-7.19773e-07
6.99357e-08
-7.53386e-07
7.24605e-08
-7.87908e-07
7.49924e-08
-8.23306e-07
7.7521e-08
-8.59552e-07
8.00355e-08
-8.96605e-07
8.25248e-08
-9.34426e-07
8.49766e-08
-9.72963e-07
8.73786e-08
-1.01217e-06
8.97184e-08
-1.05197e-06
9.19837e-08
-1.09233e-06
9.41615e-08
-1.13315e-06
9.62394e-08
-1.17438e-06
9.82044e-08
-1.21593e-06
1.00044e-07
-1.25773e-06
1.01746e-07
-1.2997e-06
1.03298e-07
-1.34174e-06
1.04688e-07
-1.38378e-06
1.05907e-07
-1.42572e-06
1.06943e-07
-1.46747e-06
1.07786e-07
-1.50896e-06
1.08429e-07
-1.55007e-06
1.08864e-07
-1.59074e-06
1.09082e-07
-1.63086e-06
1.09078e-07
-1.67035e-06
1.08843e-07
-1.70911e-06
1.08374e-07
-1.74707e-06
1.07666e-07
-1.78413e-06
1.06714e-07
-1.82021e-06
1.05517e-07
-1.85522e-06
1.04074e-07
-1.88908e-06
1.0238e-07
-1.92172e-06
1.00436e-07
-1.95305e-06
9.82412e-08
-1.98301e-06
9.5796e-08
-2.01151e-06
9.31007e-08
-2.03849e-06
9.01575e-08
-2.06387e-06
8.69687e-08
-2.08758e-06
8.35368e-08
-2.10955e-06
7.98666e-08
-2.12975e-06
7.59562e-08
-2.14812e-06
7.18084e-08
-2.16459e-06
6.74299e-08
-2.17911e-06
6.28258e-08
-2.19162e-06
5.80054e-08
-2.20207e-06
5.29739e-08
-2.21042e-06
4.77406e-08
-2.21662e-06
4.23118e-08
-2.22063e-06
3.66974e-08
-2.22241e-06
3.09053e-08
-2.22194e-06
2.49441e-08
-2.21918e-06
1.88236e-08
-2.21411e-06
1.25517e-08
-2.20669e-06
6.14364e-09
-2.19691e-06
-3.87465e-10
-2.18477e-06
-7.01338e-09
-2.17028e-06
-1.37181e-08
-2.15343e-06
-2.04893e-08
-2.1342e-06
-2.73233e-08
-2.11256e-06
-3.42069e-08
-2.08851e-06
-4.11379e-08
-2.06204e-06
-4.81015e-08
-2.03314e-06
-5.50808e-08
-2.0018e-06
-6.20584e-08
-1.96806e-06
-6.90241e-08
-1.93191e-06
-7.59617e-08
-1.89338e-06
-8.28585e-08
-1.8525e-06
-8.96983e-08
-1.8093e-06
-9.64672e-08
-1.76382e-06
-1.03151e-07
-1.71611e-06
-1.09735e-07
-1.66622e-06
-1.16204e-07
-1.6142e-06
-1.22536e-07
-1.56009e-06
-1.28714e-07
-1.50397e-06
-1.34716e-07
-1.44591e-06
-1.40526e-07
-1.38599e-06
-1.46126e-07
-1.32428e-06
-1.51499e-07
-1.26088e-06
-1.56633e-07
-1.19588e-06
-1.61518e-07
-1.12937e-06
-1.66143e-07
-1.06146e-06
-1.70488e-07
-9.92249e-07
-1.74532e-07
-9.21855e-07
-1.78258e-07
-8.50387e-07
-1.81652e-07
-7.77965e-07
-1.84712e-07
-7.04709e-07
-1.87436e-07
-6.30739e-07
-1.8982e-07
-5.56176e-07
-1.91859e-07
-4.81139e-07
-1.93549e-07
-4.05747e-07
-1.94885e-07
-3.30121e-07
-1.9586e-07
-2.54385e-07
-1.96467e-07
-1.7867e-07
-1.96695e-07
-1.03107e-07
-1.96534e-07
-2.78266e-08
-1.95965e-07
4.70314e-08
-1.94955e-07
1.21315e-07
-1.93454e-07
1.94872e-07
-1.91417e-07
2.67569e-07
-1.88821e-07
3.39337e-07
-1.85731e-07
4.10192e-07
-1.82385e-07
4.80222e-07
-1.78887e-07
5.49378e-07
-1.75159e-07
6.17535e-07
-1.71267e-07
6.84571e-07
-1.67286e-07
7.50399e-07
-1.63239e-07
8.14948e-07
-1.5912e-07
8.78162e-07
-1.54914e-07
9.39987e-07
-1.5061e-07
1.00037e-06
-1.46204e-07
1.05926e-06
-1.41697e-07
1.11661e-06
-1.37101e-07
1.17238e-06
-1.32426e-07
1.22654e-06
-1.27691e-07
1.27906e-06
-1.22913e-07
1.32992e-06
-1.18109e-07
1.3791e-06
-1.13286e-07
1.42657e-06
-1.08445e-07
1.47233e-06
-1.03567e-07
1.51631e-06
-9.86087e-08
1.55846e-06
-9.3478e-08
1.59866e-06
-8.80167e-08
1.6367e-06
-8.1949e-08
1.67226e-06
-7.48083e-08
1.70479e-06
-6.57724e-08
1.73341e-06
-5.32654e-08
1.75723e-06
-3.49281e-08
1.77359e-06
-5.99473e-09
5.00624e-08
1.7852e-06
5.77923e-10
-2.89022e-09
1.47568e-09
-5.90371e-09
2.08403e-09
-6.87502e-09
1.93218e-09
-6.12306e-09
7.50049e-10
-4.13667e-09
-1.56731e-09
-1.37246e-09
-5.01917e-09
1.81488e-09
-9.55576e-09
5.17512e-09
-1.51066e-08
8.53776e-09
-2.15982e-08
1.17884e-08
-2.89577e-08
1.4853e-08
-3.71172e-08
1.76878e-08
-4.60129e-08
2.02731e-08
-5.55875e-08
2.26072e-08
-6.57892e-08
2.47025e-08
-7.6574e-08
2.65813e-08
-8.79037e-08
2.82722e-08
-9.9749e-08
2.98067e-08
-1.12086e-07
3.12173e-08
-1.249e-07
3.25353e-08
-1.3818e-07
3.37904e-08
-1.51926e-07
3.50105e-08
-1.66137e-07
3.62212e-08
-1.80821e-07
3.74461e-08
-1.95986e-07
3.87056e-08
-2.11648e-07
4.00172e-08
-2.27824e-07
4.13953e-08
-2.44533e-07
4.28513e-08
-2.61797e-07
4.4394e-08
-2.79642e-07
4.60301e-08
-2.98091e-07
4.77641e-08
-3.17171e-07
4.95992e-08
-3.36907e-07
5.15372e-08
-3.57326e-07
5.35787e-08
-3.78453e-07
5.57236e-08
-4.00312e-07
5.7971e-08
-4.22925e-07
6.0319e-08
-4.46314e-07
6.27655e-08
-4.70494e-07
6.5308e-08
-4.95484e-07
6.79436e-08
-5.21294e-07
7.06683e-08
-5.47938e-07
7.34778e-08
-5.75421e-07
7.63665e-08
-6.0375e-07
7.93284e-08
-6.32921e-07
8.23565e-08
-6.62934e-07
8.54429e-08
-6.93778e-07
8.85788e-08
-7.25443e-07
9.17548e-08
-7.57908e-07
9.49606e-08
-7.91153e-07
9.81853e-08
-8.25149e-07
1.01417e-07
-8.59866e-07
1.04643e-07
-8.95264e-07
1.0785e-07
-9.31305e-07
1.11022e-07
-9.67939e-07
1.14145e-07
-1.00512e-06
1.17203e-07
-1.04279e-06
1.20182e-07
-1.08089e-06
1.23067e-07
-1.11937e-06
1.25841e-07
-1.15816e-06
1.2849e-07
-1.19718e-06
1.30996e-07
-1.23638e-06
1.33347e-07
-1.27569e-06
1.35526e-07
-1.31502e-06
1.3752e-07
-1.3543e-06
1.39314e-07
-1.39347e-06
1.40896e-07
-1.43244e-06
1.42253e-07
-1.47114e-06
1.43374e-07
-1.50949e-06
1.44249e-07
-1.54743e-06
1.44867e-07
-1.58487e-06
1.45219e-07
-1.62175e-06
1.45299e-07
-1.65799e-06
1.451e-07
-1.69353e-06
1.44614e-07
-1.7283e-06
1.43835e-07
-1.76222e-06
1.42759e-07
-1.79523e-06
1.41383e-07
-1.82728e-06
1.39701e-07
-1.85828e-06
1.37714e-07
-1.88819e-06
1.3542e-07
-1.91694e-06
1.32817e-07
-1.94447e-06
1.29906e-07
-1.97073e-06
1.26686e-07
-1.99565e-06
1.23158e-07
-2.01919e-06
1.19324e-07
-2.04128e-06
1.15185e-07
-2.06187e-06
1.10744e-07
-2.08091e-06
1.06005e-07
-2.09833e-06
1.00972e-07
-2.11409e-06
9.5646e-08
-2.12815e-06
9.00323e-08
-2.14047e-06
8.41321e-08
-2.15099e-06
7.79528e-08
-2.15968e-06
7.15019e-08
-2.16647e-06
6.47892e-08
-2.17132e-06
5.78227e-08
-2.1742e-06
5.06123e-08
-2.17507e-06
4.31677e-08
-2.17389e-06
3.54997e-08
-2.17063e-06
2.76195e-08
-2.16525e-06
1.95376e-08
-2.15773e-06
1.12675e-08
-2.14805e-06
2.82176e-09
-2.13617e-06
-5.77696e-09
-2.1221e-06
-1.4511e-08
-2.10579e-06
-2.3358e-08
-2.08723e-06
-3.23069e-08
-2.06641e-06
-4.13413e-08
-2.04329e-06
-5.04557e-08
-2.01787e-06