/*--------------------------------*- C++ -*----------------------------------*\
| =========                 |                                                 |
| \\      /  F ield         | OpenFOAM: The Open Source CFD Toolbox           |
|  \\    /   O peration     | Version:  2412                                  |
|   \\  /    A nd           | Website:  www.openfoam.com                      |
|    \\/     M anipulation  |                                                 |
\*---------------------------------------------------------------------------*/
FoamFile
{
    version     2.0;
    format      ascii;
    arch        "LSB;label=32;scalar=64";
    class       volVectorField;
    location    "200";
    object      U;
}
// * * * * * * * * * * * * * * * * * * * * * * * * * * * * * * * * * * * * * //

dimensions      [0 1 -1 0 0 0 0];

internalField   nonuniform List<vector> 
12225
(
(7.55431 -0.136393 0)
(5.15598 0.0999844 0)
(3.80854 0.0630682 0)
(2.99234 0.0248183 0)
(2.55825 0.0153109 0)
(2.29604 0.0124874 0)
(2.1021 0.0101755 0)
(1.9549 0.00780793 0)
(1.84533 0.00590191 0)
(1.76304 0.00455179 0)
(1.70029 0.00351519 0)
(1.65255 0.00261091 0)
(1.61717 0.00175023 0)
(1.59253 0.000870486 0)
(1.57827 -0.000250319 0)
(1.57399 -0.00181783 0)
(1.586 -0.00588825 0)
(1.58129 -0.0975377 0)
(10.141 0.703704 0)
(9.34263 0.741719 0)
(8.0029 0.432186 0)
(6.75916 0.246015 0)
(5.90549 0.152281 0)
(5.35006 0.103929 0)
(4.95583 0.0780668 0)
(4.65738 0.0611075 0)
(4.42785 0.0481975 0)
(4.24994 0.0382462 0)
(4.11085 0.0304203 0)
(4.00198 0.0238567 0)
(3.91791 0.0179283 0)
(3.85506 0.01213 0)
(3.81212 0.00576977 0)
(3.78773 -0.00288345 0)
(3.79095 -0.0154949 0)
(3.79177 -0.068373 0)
(10.2508 0.727519 0)
(10.6449 0.897665 0)
(10.3387 0.68318 0)
(9.60616 0.503916 0)
(8.85396 0.370683 0)
(8.22808 0.271954 0)
(7.72791 0.205287 0)
(7.32882 0.160246 0)
(7.01086 0.127719 0)
(6.75687 0.103073 0)
(6.5529 0.0836418 0)
(6.38898 0.0674756 0)
(6.25825 0.0531456 0)
(6.15598 0.0394784 0)
(6.07989 0.02515 0)
(6.02686 0.00752072 0)
(6.00208 -0.0172891 0)
(5.97691 -0.0742303 0)
(10.1155 0.494409 0)
(10.6775 0.749405 0)
(10.9709 0.69521 0)
(10.8766 0.611818 0)
(10.5816 0.520345 0)
(10.2218 0.427283 0)
(9.85586 0.347911 0)
(9.51274 0.284901 0)
(9.20765 0.234669 0)
(8.94444 0.194135 0)
(8.72072 0.160897 0)
(8.53252 0.132728 0)
(8.37603 0.107693 0)
(8.24803 0.0840889 0)
(8.14633 0.0600755 0)
(8.06747 0.0325984 0)
(8.01292 -0.00205083 0)
(7.95694 -0.0556735 0)
(10.0749 0.367247 0)
(10.5098 0.634685 0)
(10.8768 0.640199 0)
(11.052 0.599901 0)
(11.0855 0.550996 0)
(11.0345 0.490556 0)
(10.9226 0.429072 0)
(10.7725 0.372978 0)
(10.6066 0.322811 0)
(10.4405 0.278187 0)
(10.2826 0.238558 0)
(10.1375 0.202903 0)
(10.0078 0.169918 0)
(9.89449 0.138101 0)
(9.79808 0.105773 0)
(9.71659 0.0702635 0)
(9.65131 0.0294919 0)
(9.58131 -0.0220589 0)
(10.0642 0.289759 0)
(10.3876 0.549365 0)
(10.6697 0.574481 0)
(10.8707 0.546435 0)
(10.9964 0.516064 0)
(11.0835 0.477879 0)
(11.1304 0.435504 0)
(11.1393 0.394037 0)
(11.1197 0.354457 0)
(11.0815 0.316675 0)
(11.032 0.28067 0)
(10.9766 0.246132 0)
(10.9195 0.212391 0)
(10.8636 0.178442 0)
(10.811 0.143144 0)
(10.7614 0.104641 0)
(10.7162 0.0625493 0)
(10.6623 0.0141166 0)
(10.051 0.225952 0)
(10.2888 0.471141 0)
(10.5161 0.508458 0)
(10.6878 0.491034 0)
(10.8073 0.468903 0)
(10.91 0.440435 0)
(10.9955 0.407454 0)
(11.0609 0.37446 0)
(11.1083 0.342707 0)
(11.1416 0.311809 0)
(11.1634 0.281428 0)
(11.176 0.251225 0)
(11.1814 0.220645 0)
(11.1815 0.188932 0)
(11.1774 0.155316 0)
(11.169 0.118719 0)
(11.1564 0.079635 0)
(11.1338 0.0370465 0)
(10.0348 0.173479 0)
(10.208 0.402657 0)
(10.4175 0.450918 0)
(10.5657 0.444312 0)
(10.6707 0.427652 0)
(10.7602 0.404202 0)
(10.8397 0.375699 0)
(10.9074 0.346356 0)
(10.9648 0.31797 0)
(11.0144 0.290342 0)
(11.0573 0.263038 0)
(11.0941 0.235673 0)
(11.1252 0.207736 0)
(11.1512 0.178612 0)
(11.172 0.147765 0)
(11.187 0.114672 0)
(11.1956 0.0800537 0)
(11.1959 0.044131 0)
(10.0224 0.136091 0)
(10.1554 0.336915 0)
(10.3415 0.396716 0)
(10.477 0.401434 0)
(10.5755 0.390428 0)
(10.657 0.37136 0)
(10.7287 0.34648 0)
(10.7905 0.319706 0)
(10.8442 0.293216 0)
(10.892 0.267215 0)
(10.9351 0.241414 0)
(10.974 0.215515 0)
(11.0089 0.189138 0)
(11.0398 0.161847 0)
(11.0663 0.133319 0)
(11.0878 0.103406 0)
(11.1035 0.0727717 0)
(11.1132 0.042234 0)
(10.0151 0.10938 0)
(10.1188 0.278984 0)
(10.2751 0.344088 0)
(10.4007 0.357588 0)
(10.4964 0.352572 0)
(10.5752 0.33827 0)
(10.6438 0.317316 0)
(10.7029 0.293383 0)
(10.754 0.268872 0)
(10.7994 0.244382 0)
(10.8403 0.219858 0)
(10.8774 0.195143 0)
(10.9108 0.17003 0)
(10.9406 0.144268 0)
(10.9665 0.117728 0)
(10.9881 0.0904773 0)
(11.0048 0.063085 0)
(11.0172 0.0364484 0)
(10.0104 0.0871839 0)
(10.0906 0.226778 0)
(10.2176 0.29285 0)
(10.3314 0.312444 0)
(10.4234 0.312752 0)
(10.5007 0.30307 0)
(10.5684 0.286222 0)
(10.6271 0.265505 0)
(10.6778 0.243352 0)
(10.7226 0.220676 0)
(10.7626 0.197666 0)
(10.7986 0.174327 0)
(10.8308 0.150618 0)
(10.8593 0.126456 0)
(10.8841 0.101861 0)
(10.905 0.0770098 0)
(10.9217 0.0523897 0)
(10.9347 0.0287475 0)
(10.0077 0.0699366 0)
(10.0711 0.185797 0)
(10.1747 0.248884 0)
(10.2759 0.271469 0)
(10.3622 0.275237 0)
(10.4368 0.268985 0)
(10.5032 0.255555 0)
(10.5616 0.237798 0)
(10.6126 0.218019 0)
(10.6576 0.197275 0)
(10.6977 0.175928 0)
(10.7335 0.154118 0)
(10.7654 0.131933 0)
(10.7935 0.109414 0)
(10.8179 0.0866808 0)
(10.8386 0.0639563 0)
(10.8553 0.0416511 0)
(10.869 0.0203663 0)
(10.0059 0.0558494 0)
(10.0558 0.151213 0)
(10.1402 0.208774 0)
(10.2289 0.232319 0)
(10.3083 0.238289 0)
(10.3788 0.234532 0)
(10.4427 0.223869 0)
(10.4999 0.208762 0)
(10.5507 0.191286 0)
(10.5958 0.172536 0)
(10.636 0.152983 0)
(10.6719 0.132862 0)
(10.7038 0.112355 0)
(10.7319 0.0915943 0)
(10.7562 0.0707608 0)
(10.777 0.0500981 0)
(10.7942 0.0299496 0)
(10.8086 0.0108053 0)
(10.0045 0.0430935 0)
(10.0429 0.11821 0)
(10.1101 0.167443 0)
(10.1858 0.189986 0)
(10.2569 0.197011 0)
(10.3218 0.195 0)
(10.3816 0.186663 0)
(10.4363 0.174051 0)
(10.4856 0.158933 0)
(10.5298 0.142371 0)
(10.5696 0.124897 0)
(10.6052 0.106811 0)
(10.637 0.0883511 0)
(10.665 0.069708 0)
(10.6895 0.0510931 0)
(10.7106 0.0327478 0)
(10.7284 0.0149432 0)
(10.7436 -0.00192046 0)
(10.0035 0.0314369 0)
(10.0326 0.0870942 0)
(10.0854 0.12593 0)
(10.1485 0.145377 0)
(10.211 0.152095 0)
(10.2697 0.150939 0)
(10.3247 0.144309 0)
(10.3758 0.133844 0)
(10.4225 0.120957 0)
(10.4649 0.106611 0)
(10.5033 0.0913512 0)
(10.5379 0.0755107 0)
(10.5689 0.059346 0)
(10.5965 0.0430765 0)
(10.6207 0.026911 0)
(10.6419 0.0110671 0)
(10.6601 -0.00425547 0)
(10.6761 -0.0187307 0)
(10.0026 0.0207432 0)
(10.0249 0.0578481 0)
(10.0663 0.0848114 0)
(10.1185 0.0990079 0)
(10.1728 0.103852 0)
(10.2255 0.102524 0)
(10.2756 0.0968791 0)
(10.3229 0.0881278 0)
(10.3666 0.0772958 0)
(10.4067 0.0651575 0)
(10.4432 0.0522056 0)
(10.4763 0.0387621 0)
(10.5062 0.0250725 0)
(10.5328 0.0113473 0)
(10.5565 -0.00222732 0)
(10.5775 -0.0154734 0)
(10.5958 -0.0282506 0)
(10.612 -0.0403018 0)
(10.0021 0.0107606 0)
(10.0195 0.029967 0)
(10.0529 0.0439352 0)
(10.0967 0.0508371 0)
(10.1442 0.0521206 0)
(10.1916 0.0494584 0)
(10.2376 0.0439803 0)
(10.2814 0.0364261 0)
(10.3224 0.0274223 0)
(10.3603 0.0174729 0)
(10.3951 0.00693546 0)
(10.4267 -0.00394394 0)
(10.4553 -0.0149696 0)
(10.4811 -0.0259777 0)
(10.5042 -0.0368228 0)
(10.5247 -0.0473764 0)
(10.543 -0.0575461 0)
(10.5592 -0.0671359 0)
(10.0017 0.000898046 0)
(10.0166 0.00203578 0)
(10.0454 0.00182347 0)
(10.0843 -0.000437242 0)
(10.1276 -0.00438571 0)
(10.1716 -0.00960037 0)
(10.2146 -0.015773 0)
(10.256 -0.022685 0)
(10.2951 -0.0301328 0)
(10.3314 -0.0379394 0)
(10.3648 -0.0459664 0)
(10.3954 -0.054105 0)
(10.4232 -0.0622586 0)
(10.4483 -0.0703382 0)
(10.471 -0.0782614 0)
(10.4913 -0.0859518 0)
(10.5095 -0.0933597 0)
(10.5259 -0.100338 0)
(10.0017 -0.010146 0)
(10.0166 -0.0292688 0)
(10.0455 -0.0456414 0)
(10.0845 -0.0587113 0)
(10.1278 -0.0690703 0)
(10.1716 -0.0775987 0)
(10.2144 -0.0849206 0)
(10.2554 -0.0914054 0)
(10.2941 -0.097315 0)
(10.33 -0.102859 0)
(10.3631 -0.108175 0)
(10.3933 -0.113339 0)
(10.4209 -0.118381 0)
(10.4459 -0.123308 0)
(10.4685 -0.12811 0)
(10.489 -0.132765 0)
(10.5075 -0.13726 0)
(10.524 -0.141496 0)
(10.0022 -0.0219287 0)
(10.0211 -0.0625402 0)
(10.0568 -0.095415 0)
(10.1031 -0.118725 0)
(10.1522 -0.134611 0)
(10.2003 -0.14564 0)
(10.2462 -0.153433 0)
(10.2897 -0.158927 0)
(10.3301 -0.162869 0)
(10.3673 -0.165866 0)
(10.4012 -0.168326 0)
(10.432 -0.170485 0)
(10.46 -0.172486 0)
(10.4854 -0.174411 0)
(10.5083 -0.176305 0)
(10.5291 -0.178181 0)
(10.5478 -0.180047 0)
(10.5646 -0.18183 0)
(10.003 -0.0345439 0)
(10.0288 -0.0973648 0)
(10.0763 -0.145284 0)
(10.1345 -0.175867 0)
(10.1926 -0.194464 0)
(10.247 -0.205935 0)
(10.2976 -0.212744 0)
(10.3446 -0.216252 0)
(10.3876 -0.217644 0)
(10.4264 -0.217861 0)
(10.4614 -0.217483 0)
(10.4929 -0.216838 0)
(10.5213 -0.216123 0)
(10.5468 -0.21546 0)
(10.5698 -0.214909 0)
(10.5905 -0.214494 0)
(10.6092 -0.214219 0)
(10.626 -0.214018 0)
(10.0044 -0.0503309 0)
(10.0419 -0.139677 0)
(10.1084 -0.201942 0)
(10.1835 -0.236726 0)
(10.2529 -0.255292 0)
(10.3145 -0.265231 0)
(10.3703 -0.269466 0)
(10.4208 -0.269749 0)
(10.4658 -0.267737 0)
(10.5056 -0.264645 0)
(10.541 -0.261126 0)
(10.5725 -0.257541 0)
(10.6006 -0.254103 0)
(10.6258 -0.250944 0)
(10.6484 -0.248111 0)
(10.6687 -0.245613 0)
(10.6871 -0.24343 0)
(10.7035 -0.241479 0)
(10.0069 -0.0711158 0)
(10.0626 -0.193559 0)
(10.1576 -0.267135 0)
(10.2531 -0.301606 0)
(10.3337 -0.31695 0)
(10.4011 -0.323047 0)
(10.4605 -0.322744 0)
(10.5131 -0.31835 0)
(10.559 -0.312096 0)
(10.5991 -0.305316 0)
(10.6346 -0.298577 0)
(10.6662 -0.292165 0)
(10.6945 -0.286251 0)
(10.7199 -0.280923 0)
(10.7428 -0.276183 0)
(10.7635 -0.271996 0)
(10.7824 -0.2683 0)
(10.7993 -0.264963 0)
(10.0121 -0.0990744 0)
(10.0954 -0.262175 0)
(10.2282 -0.339808 0)
(10.3428 -0.366462 0)
(10.4315 -0.374703 0)
(10.5036 -0.375295 0)
(10.5675 -0.369827 0)
(10.6241 -0.360815 0)
(10.6734 -0.350783 0)
(10.7168 -0.340914 0)
(10.7555 -0.331582 0)
(10.7902 -0.32296 0)
(10.8213 -0.315152 0)
(10.8491 -0.308176 0)
(10.874 -0.301985 0)
(10.8963 -0.296513 0)
(10.9164 -0.291658 0)
(10.934 -0.287343 0)
(10.0226 -0.138601 0)
(10.1492 -0.346081 0)
(10.3216 -0.418004 0)
(10.4578 -0.431927 0)
(10.5583 -0.431368 0)
(10.6431 -0.425595 0)
(10.7204 -0.415135 0)
(10.7885 -0.402442 0)
(10.8466 -0.389612 0)
(10.8958 -0.377297 0)
(10.9373 -0.365654 0)
(10.9715 -0.354808 0)
(10.9991 -0.344843 0)
(11.0207 -0.335752 0)
(11.037 -0.327481 0)
(11.0488 -0.320005 0)
(11.0565 -0.313183 0)
(11.0607 -0.307274 0)
(10.0329 -0.192087 0)
(10.2295 -0.430512 0)
(10.4565 -0.495451 0)
(10.638 -0.502683 0)
(10.7662 -0.498163 0)
(10.8683 -0.486439 0)
(10.9483 -0.469354 0)
(11.003 -0.450442 0)
(11.0334 -0.4313 0)
(11.0435 -0.41228 0)
(11.0372 -0.393759 0)
(11.0179 -0.376151 0)
(10.9882 -0.359697 0)
(10.9506 -0.344481 0)
(10.9073 -0.330476 0)
(10.8598 -0.317714 0)
(10.8091 -0.306006 0)
(10.7577 -0.29584 0)
(10.0418 -0.278352 0)
(10.3626 -0.528338 0)
(10.6903 -0.57462 0)
(10.8935 -0.576771 0)
(10.9697 -0.564687 0)
(10.964 -0.535373 0)
(10.8991 -0.496999 0)
(10.7905 -0.457543 0)
(10.6542 -0.419813 0)
(10.503 -0.38467 0)
(10.3457 -0.352721 0)
(10.1879 -0.324277 0)
(10.0332 -0.299226 0)
(9.8837 -0.277296 0)
(9.74072 -0.258139 0)
(9.60508 -0.241435 0)
(9.47614 -0.226821 0)
(9.35671 -0.214321 0)
(10.1273 -0.496517 0)
(10.6273 -0.774788 0)
(10.8228 -0.719944 0)
(10.6709 -0.629674 0)
(10.3293 -0.545113 0)
(9.92974 -0.462549 0)
(9.52792 -0.389641 0)
(9.14737 -0.330063 0)
(8.79967 -0.282049 0)
(8.48839 -0.24336 0)
(8.21205 -0.212308 0)
(7.96714 -0.187424 0)
(7.7499 -0.167381 0)
(7.55665 -0.151082 0)
(7.3841 -0.137713 0)
(7.22954 -0.126617 0)
(7.08965 -0.117386 0)
(6.96548 -0.109446 0)
(10.3185 -0.620374 0)
(10.2352 -0.833924 0)
(9.4791 -0.619364 0)
(8.49992 -0.41717 0)
(7.63751 -0.286804 0)
(6.96805 -0.204878 0)
(6.4509 -0.155649 0)
(6.04101 -0.125464 0)
(5.70975 -0.104745 0)
(5.43784 -0.0893075 0)
(5.21094 -0.0775315 0)
(5.01858 -0.0684218 0)
(4.85348 -0.0612268 0)
(4.71023 -0.0554313 0)
(4.58475 -0.0507048 0)
(4.47404 -0.0467462 0)
(4.37503 -0.043503 0)
(4.28815 -0.0404018 0)
(8.36915 0.165482 0)
(6.36097 -0.106411 0)
(5.00645 -0.109679 0)
(4.06517 -0.0534142 0)
(3.50515 -0.0260827 0)
(3.15544 -0.0189336 0)
(2.8928 -0.0177087 0)
(2.67887 -0.0166232 0)
(2.50464 -0.0147611 0)
(2.36255 -0.0127727 0)
(2.24514 -0.0110726 0)
(2.14666 -0.00969676 0)
(2.06306 -0.00858261 0)
(1.99126 -0.007674 0)
(1.92888 -0.00694199 0)
(1.87427 -0.00629964 0)
(1.82566 -0.00585976 0)
(1.78346 -0.00527636 0)
(0.000104541 -0.000238337 -3.64651e-20)
(0.00083504 -0.000621385 4.97021e-20)
(0.00207746 -0.000894093 0)
(0.00366497 -0.00104639 0)
(0.00534845 -0.00109495 0)
(0.00694426 -0.00105791 -4.90793e-20)
(0.00831983 -0.000957173 0)
(0.00938301 -0.000815419 0)
(0.0100786 -0.000653094 0)
(0.0103836 -0.000486152 0)
(0.0102998 -0.000326149 4.90355e-20)
(0.00984723 -0.000179873 0)
(0.00905685 -5.0691e-05 0)
(0.00796498 6.07201e-05 0)
(0.00660939 0.000154841 0)
(0.00502633 0.000232781 4.96861e-20)
(0.00324886 0.000295002 0)
(0.00130608 0.000341635 0)
(-0.000776704 0.000372548 0)
(-0.0029781 0.000390519 0)
(-0.00528088 0.00039941 0)
(-0.00767348 0.000403537 0)
(-0.0101498 0.000405786 0)
(-0.0127089 0.00040916 4.97512e-20)
(-0.0153541 0.000414893 -4.96506e-20)
(-0.0180919 0.000424793 4.95443e-20)
(-0.0209315 0.00043897 4.9432e-20)
(-0.0238839 0.000458514 0)
(-0.0269615 0.000482906 0)
(-0.0301775 0.000513035 -4.90527e-20)
(-0.0335457 0.000548136 -4.89098e-20)
(-0.0370804 0.000589032 0)
(-0.0407967 0.00063491 0)
(-0.0447094 0.000686798 -4.84234e-20)
(-0.048834 0.000743891 0)
(-0.0531862 0.000807307 0)
(-0.0577825 0.000876249 4.78377e-20)
(-0.0626396 0.000951946 0)
(-0.0677753 0.00103366 4.7386e-20)
(-0.0732074 0.00112275 9.42815e-20)
(-0.0789545 0.00121846 0)
(-0.0850355 0.00132226 0)
(-0.0914701 0.0014334 0)
(-0.0982782 0.00155343 0)
(-0.10548 0.00168143 0)
(-0.113098 0.00181904 9.07619e-20)
(-0.121151 0.00196526 9.00756e-20)
(-0.129663 0.00212189 8.93605e-20)
(-0.138655 0.00228759 0)
(-0.148149 0.00246427 -8.78435e-20)
(-0.158167 0.00265031 0)
(-0.168732 0.0028472 8.62126e-20)
(-0.179864 0.00305249 8.53555e-20)
(-0.191584 0.0032677 0)
(-0.203911 0.00349059 0)
(-0.216864 0.00372348 0)
(-0.23046 0.0039652 8.16728e-20)
(-0.244718 0.00421895 0)
(-0.259652 0.00448191 0)
(-0.275274 0.00475552 0)
(-0.291599 0.0050367 0)
(-0.308633 0.00532737 0)
(-0.326382 0.00562412 0)
(-0.344852 0.00592873 0)
(-0.364043 0.00623775 0)
(-0.383953 0.00655302 -7.21315e-20)
(-0.404579 0.00687079 0)
(-0.42591 0.0071929 0)
(-0.447936 0.00751552 6.86639e-20)
(-0.470639 0.00784019 6.74852e-20)
(-0.494 0.00816231 0)
(-0.517997 0.00848239 -6.50977e-20)
(-0.542605 0.00879494 6.389e-20)
(-0.56779 0.00910036 0)
(-0.593519 0.00939417 -6.14511e-20)
(-0.619753 0.00967839 0)
(-0.64645 0.00994944 0)
(-0.673561 0.0102095 5.77386e-20)
(-0.701038 0.010454 0)
(-0.728831 0.0106839 -5.52269e-20)
(-0.756884 0.0108943 0)
(-0.785138 0.0110869 5.26825e-20)
(-0.813532 0.0112571 5.13967e-20)
(-0.842003 0.0114063 5.01009e-20)
(-0.870485 0.0115302 9.7588e-20)
(-0.898908 0.0116309 -9.49504e-20)
(-0.927199 0.0117037 0)
(-0.955275 0.0117489 0)
(-0.983051 0.0117627 0)
(-1.01044 0.0117485 -8.4114e-20)
(-1.0374 0.0117027 -8.13203e-20)
(-1.06384 0.0116255 7.84867e-20)
(-1.0897 0.0115155 0)
(-1.11488 0.0113726 -7.26869e-20)
(-1.13929 0.0111961 -6.97138e-20)
(-1.16286 0.0109861 -6.66872e-20)
(-1.1855 0.0107423 0)
(-1.20712 0.0104647 0)
(-1.22767 0.0101539 0)
(-1.24704 0.00981002 -5.39695e-20)
(-1.26517 0.00943538 0)
(-1.28199 0.00902976 0)
(-1.29742 0.00859658 4.36786e-20)
(-1.31139 0.00813043 0)
(-1.32383 0.00763194 0)
(-1.33466 0.00708571 3.26192e-20)
(-1.34379 0.0064897 0)
(-1.35116 0.00583268 0)
(-1.35669 0.00513432 -2.06713e-20)
(-1.36027 0.00441639 -1.6474e-20)
(-1.36177 0.00372015 0)
(-1.36128 0.00304715 7.72021e-21)
(-1.35886 0.00239091 0)
(-1.35448 0.00172533 1.52314e-21)
(-1.34814 0.00105017 0)
(-1.33984 0.000368785 1.12848e-20)
(-1.32955 -0.000315442 1.63691e-20)
(-1.31728 -0.00101054 0)
(-1.30302 -0.00170972 0)
(-1.28677 -0.00241571 0)
(-1.26855 -0.00312409 0)
(-1.24837 -0.00383522 0)
(-1.22626 -0.00454547 0)
(-1.20222 -0.00525431 0)
(-1.17629 -0.00595898 6.2344e-20)
(-1.1485 -0.00665882 -6.87932e-20)
(-1.11889 -0.00735022 0)
(-1.08753 -0.00803226 0)
(-1.05445 -0.00870566 0)
(-1.01972 -0.00936848 0)
(-0.983393 -0.0100212 -2.06977e-19)
(-0.945539 -0.0106581 0)
(-0.906228 -0.0112757 2.37021e-19)
(-0.865546 -0.011868 -2.52534e-19)
(-0.823588 -0.0124382 0)
(-0.780442 -0.0129832 0)
(-0.736201 -0.0135059 0)
(-0.690958 -0.0140011 3.17622e-19)
(-0.644808 -0.0144705 3.34607e-19)
(-0.597847 -0.0149103 0)
(-0.550167 -0.0153202 3.69345e-19)
(-0.501863 -0.0156971 3.87067e-19)
(-0.453034 -0.0160394 -4.04999e-19)
(-0.403786 -0.0163442 0)
(-0.354233 -0.0166086 0)
(-0.304496 -0.0168266 -4.59812e-19)
(-0.254709 -0.0169911 0)
(-0.205032 -0.0170925 0)
(-0.155651 -0.0171247 0)
(-0.106765 -0.0170668 0)
(-0.0585366 -0.0168668 5.52861e-19)
(-0.0110861 -0.0164218 5.68143e-19)
(0.0348822 -0.0155415 0)
(0.079525 -0.0145166 5.7229e-19)
(0.122734 -0.0135463 0)
(0.164536 -0.0126487 0)
(0.204981 -0.01181 5.68941e-19)
(0.244103 -0.0110168 0)
(0.28191 -0.0102599 5.66737e-19)
(0.318397 -0.00953377 0)
(0.353551 -0.0088358 0)
(0.387358 -0.00816438 5.63284e-19)
(0.419805 -0.00751854 0)
(0.450883 -0.00689796 5.6089e-19)
(0.480586 -0.00630281 0)
(0.508916 -0.00573294 0)
(0.535879 -0.00518837 0)
(0.561486 -0.00466806 -5.55957e-19)
(0.58575 -0.00417101 0)
(0.608677 -0.00369463 5.5348e-19)
(0.630268 -0.0032359 0)
(0.650502 -0.00278614 0)
(0.669319 -0.00233299 0)
(0.686575 -0.00185079 0)
(0.702031 -0.00130917 0)
(0.715057 -0.000598212 0)
(0.725236 0.000309845 0)
(0.72788 0.00243772 -1.10021e-18)
(0.732481 0.00398433 0)
(0.673282 0.0163355 0)
(0.000203023 -0.00168604 1.16292e-19)
(0.00160189 -0.00399738 -1.67425e-19)
(0.00366554 -0.00543465 0)
(0.00605388 -0.00602394 1.07069e-19)
(0.00835013 -0.00590267 0)
(0.0102608 -0.00522709 5.12186e-20)
(0.01159 -0.00415542 -1.00571e-19)
(0.012214 -0.0028365 -9.9041e-20)
(0.0120684 -0.00140008 0)
(0.011136 5.0052e-05 -9.66648e-20)
(0.00943662 0.00143855 -4.78648e-20)
(0.0070138 0.00271597 0)
(0.00392592 0.00385512 0)
(0.000239012 0.0048461 0)
(-0.00397949 0.00569136 0)
(-0.00866551 0.00640208 -4.5714e-20)
(-0.0137607 0.00699398 0)
(-0.0192146 0.00748434 8.94701e-20)
(-0.0249863 0.00788935 0)
(-0.0310444 0.00822471 0)
(-0.0373661 0.00850749 -8.74333e-20)
(-0.0439365 0.0087564 0)
(-0.0507479 0.00898891 8.6381e-20)
(-0.0578004 0.00922053 -4.29652e-20)
(-0.0650997 0.00946313 4.2711e-20)
(-0.0726571 0.00972618 -4.24521e-20)
(-0.0804884 0.0100159 -4.21866e-20)
(-0.0886126 0.010337 0)
(-0.0970512 0.0106919 0)
(-0.105828 0.0110827 4.13395e-20)
(-0.114967 0.0115099 -4.0967e-20)
(-0.124496 0.011974 0)
(-0.13444 0.0124747 0)
(-0.144827 0.0130119 4.00725e-20)
(-0.155685 0.0135848 0)
(-0.16704 0.0141937 0)
(-0.178922 0.0148393 -3.90061e-20)
(-0.191359 0.0155224 0)
(-0.204379 0.016243 3.81472e-20)
(-0.218011 0.0170013 -7.56774e-20)
(-0.232284 0.0177967 0)
(-0.247226 0.0186297 0)
(-0.262865 0.0194999 -1.46111e-19)
(-0.279229 0.0204071 -1.44348e-19)
(-0.296344 0.0213507 -1.42549e-19)
(-0.314237 0.0223302 7.02481e-20)
(-0.332933 0.0233448 -6.95352e-20)
(-0.352457 0.0243938 -2.05536e-19)
(-0.372829 0.0254757 1.3502e-19)
(-0.394073 0.0265895 6.66498e-20)
(-0.416208 0.0277328 0)
(-0.439251 0.0289039 -6.46629e-20)
(-0.463217 0.0300999 6.34106e-20)
(-0.488117 0.0313193 0)
(-0.513959 0.0325596 0)
(-0.54075 0.0338157 0)
(-0.56849 0.0350785 -5.95796e-20)
(-0.597172 0.0363438 0)
(-0.626786 0.0376074 1.14821e-19)
(-0.657319 0.0388649 0)
(-0.688752 0.0401098 1.10747e-19)
(-0.721059 0.0413369 0)
(-0.754214 0.0425391 -1.06704e-19)
(-0.788182 0.0437108 0)
(-0.822925 0.0448446 1.02708e-19)
(-0.858398 0.0459347 -5.02469e-20)
(-0.894554 0.0469733 0)
(-0.931337 0.0479544 -9.68306e-20)
(-0.968688 0.0488701 -4.7566e-20)
(-1.00654 0.0497143 -4.661e-20)
(-1.04483 0.0504792 0)
(-1.08348 0.0511605 -4.45135e-20)
(-1.12242 0.0517533 -4.37921e-20)
(-1.16157 0.0522535 0)
(-1.20085 0.0526538 4.19558e-20)
(-1.24017 0.0529513 -8.19169e-20)
(-1.27946 0.0531416 0)
(-1.31861 0.0532219 -3.92622e-20)
(-1.35754 0.0531881 0)
(-1.39615 0.0530395 1.12335e-19)
(-1.43434 0.0527726 0)
(-1.47203 0.0523866 -1.07099e-19)
(-1.50911 0.0518791 -3.4874e-20)
(-1.54549 0.0512507 3.38799e-20)
(-1.58107 0.0505002 6.60328e-20)
(-1.61576 0.049629 -6.43022e-20)
(-1.64947 0.0486356 0)
(-1.68208 0.0475211 0)
(-1.7135 0.0462882 0)
(-1.74364 0.0449427 1.72138e-19)
(-1.77242 0.0434844 5.5615e-20)
(-1.79979 0.0419142 -5.37852e-20)
(-1.82563 0.0402337 0)
(-1.84988 0.0384486 -5.00005e-20)
(-1.87243 0.0365623 4.81442e-20)
(-1.89322 0.0345809 4.62037e-20)
(-1.91217 0.0325077 0)
(-1.92922 0.030349 0)
(-1.9443 0.0281091 0)
(-1.95734 0.0257942 3.80663e-20)
(-1.96829 0.0234092 0)
(-1.97709 0.0209577 -6.76131e-20)
(-1.9837 0.0184456 -9.46557e-20)
(-1.98807 0.0158744 5.86049e-20)
(-1.99013 0.0132537 0)
(-1.98985 0.0105835 2.47106e-20)
(-1.98716 0.00787868 0)
(-1.98204 0.00515151 3.92137e-20)
(-1.97455 0.00241091 -1.71983e-20)
(-1.96475 -0.000352385 -1.45705e-20)
(-1.95266 -0.0031009 0)
(-1.9382 -0.0058097 -2.65249e-20)
(-1.9213 -0.00847066 1.2183e-20)
(-1.90195 -0.0111003 2.95648e-21)
(-1.88013 -0.0136952 0)
(-1.85586 -0.0162597 -3.02851e-21)
(-1.82913 -0.0187846 -1.77316e-20)
(-1.79997 -0.0212692 0)
(-1.7684 -0.0237036 -2.4245e-20)
(-1.73443 -0.0260863 -3.07334e-20)
(-1.69812 -0.0284105 -3.73349e-20)
(-1.65948 -0.0306733 0)
(-1.61856 -0.0328664 0)
(-1.57541 -0.034984 0)
(-1.53006 -0.0370187 3.19554e-20)
(-1.48258 -0.0389676 3.64174e-20)
(-1.43303 -0.0408216 0)
(-1.38149 -0.0425783 8.63682e-20)
(-1.32803 -0.0442384 9.37032e-20)
(-1.27273 -0.0457976 0)
(-1.21568 -0.0472554 1.09631e-19)
(-1.15697 -0.0486028 2.32058e-19)
(-1.09669 -0.0498366 -1.24695e-19)
(-1.03495 -0.0509467 -1.29929e-19)
(-0.971863 -0.051934 0)
(-0.907529 -0.0528 0)
(-0.842069 -0.0535502 0)
(-0.775596 -0.0541803 -1.6253e-19)
(-0.708228 -0.0546948 1.67476e-19)
(-0.640084 -0.0550916 3.52339e-19)
(-0.571276 -0.0553729 -1.84823e-19)
(-0.501919 -0.0555363 1.89497e-19)
(-0.432134 -0.0555815 1.99306e-19)
(-0.36205 -0.0555057 0)
(-0.291799 -0.0553063 0)
(-0.221524 -0.0549751 -2.17581e-19)
(-0.151372 -0.0544989 0)
(-0.0815118 -0.053857 0)
(-0.0121228 -0.0530221 4.74522e-19)
(0.0566123 -0.0519783 0)
(0.124481 -0.0507683 2.37281e-19)
(0.191293 -0.0494776 -2.40132e-19)
(0.256908 -0.0479707 0)
(0.321522 -0.0462453 2.43935e-19)
(0.385062 -0.0445004 0)
(0.447453 -0.0428113 0)
(0.508655 -0.0411774 -2.57628e-19)
(0.568635 -0.0395805 5.20542e-19)
(0.627358 -0.0380049 -2.64787e-19)
(0.684781 -0.0364416 0)
(0.740862 -0.034888 0)
(0.795551 -0.0333443 2.72878e-19)
(0.848803 -0.0318128 0)
(0.900573 -0.0302972 2.78858e-19)
(0.950823 -0.0288026 0)
(0.999519 -0.0273339 0)
(1.04663 -0.0258954 0)
(1.09214 -0.0244892 2.90277e-19)
(1.13602 -0.0231141 0)
(1.17825 -0.021764 -2.94314e-19)
(1.21879 -0.0204274 0)
(1.25758 -0.019079 0)
(1.29453 -0.0176767 5.97927e-19)
(1.32943 -0.0161444 -6.01076e-19)
(1.36201 -0.0143542 0)
(1.39157 -0.0120582 0)
(1.41776 -0.00877762 0)
(1.4361 -0.0035211 1.84951e-18)
(1.4562 0.00461238 0)
(1.42464 0.0264562 -1.25875e-18)
(0.000210581 -0.00358557 -3.22931e-23)
(0.00155169 -0.00795937 2.21155e-19)
(0.00333234 -0.0102396 0)
(0.00511079 -0.0106654 -2.05163e-19)
(0.0064296 -0.00964168 0)
(0.00701099 -0.00757278 0)
(0.00671198 -0.00482466 2.22694e-23)
(0.00547359 -0.0017052 8.47174e-20)
(0.00329013 0.00154158 8.17132e-20)
(0.000191583 0.0047336 7.91377e-20)
(-0.00377274 0.00774448 0)
(-0.00854125 0.0104961 0)
(-0.0140469 0.0129491 -7.2665e-20)
(-0.0202221 0.0150933 -1.41912e-19)
(-0.0270018 0.0169402 1.38849e-19)
(-0.0343269 0.018516 0)
(-0.0421456 0.019855 1.33684e-19)
(-0.0504152 0.0209954 -6.5817e-20)
(-0.0591023 0.0219752 0)
(-0.068183 0.0228304 1.28083e-19)
(-0.0776408 0.0235949 6.33694e-20)
(-0.0874661 0.0243008 -1.25334e-19)
(-0.0976554 0.024978 -6.21038e-20)
(-0.108211 0.0256528 0)
(-0.119139 0.0263471 1.21776e-19)
(-0.130453 0.0270783 1.20638e-19)
(-0.142169 0.0278597 0)
(-0.154307 0.028701 1.18365e-19)
(-0.166889 0.0296087 0)
(-0.17994 0.0305869 1.16062e-19)
(-0.193488 0.0316379 5.75133e-20)
(-0.207559 0.0327627 0)
(-0.222184 0.0339617 0)
(-0.237391 0.0352343 0)
(-0.253209 0.0365798 0)
(-0.269669 0.0379971 0)
(-0.2868 0.0394852 0)
(-0.304629 0.0410437 1.06305e-19)
(-0.323186 0.042672 -1.57613e-19)
(-0.342495 0.0443676 0)
(-0.362582 0.0461281 0)
(-0.383472 0.0479512 0)
(-0.405186 0.0498344 1.86117e-22)
(-0.427745 0.0517746 9.8581e-20)
(-0.451167 0.053768 1.94255e-19)
(-0.475468 0.0558107 -1.91518e-19)
(-0.50066 0.0578982 -9.42814e-20)
(-0.526753 0.0600257 9.30976e-20)
(-0.553754 0.0621879 -2.06313e-22)
(-0.581666 0.0643787 9.00983e-20)
(-0.610488 0.0665911 0)
(-0.640215 0.0688171 8.72824e-20)
(-0.670838 0.0710476 -2.13718e-22)
(-0.702342 0.0732724 0)
(-0.734708 0.075482 0)
(-0.767909 0.0776673 -8.16251e-20)
(-0.801916 0.0798188 0)
(-0.836693 0.0819238 0)
(-0.872203 0.0839704 7.71865e-20)
(-0.908401 0.085947 1.52016e-19)
(-0.945237 0.0878427 -7.48363e-20)
(-0.982657 0.0896458 0)
(-1.0206 0.0913454 7.21044e-20)
(-1.05901 0.0929297 0)
(-1.09782 0.0943882 6.90249e-20)
(-1.13695 0.09571 6.81003e-20)
(-1.17634 0.0968853 -1.33201e-19)
(-1.2159 0.0979043 -6.51227e-20)
(-1.25556 0.0987585 0)
(-1.29525 0.0994394 1.25533e-19)
(-1.33487 0.0999405 0)
(-1.37434 0.100255 1.80987e-19)
(-1.41359 0.100379 1.18086e-19)
(-1.45254 0.100306 1.15648e-19)
(-1.49109 0.100034 -1.13231e-19)
(-1.52917 0.099557 1.66391e-19)
(-1.56669 0.0988761 0)
(-1.60357 0.0979891 0)
(-1.63972 0.0968965 -1.03697e-19)
(-1.67507 0.0955984 -1.52117e-19)
(-1.70954 0.0940975 0)
(-1.74304 0.092394 4.84089e-20)
(-1.77551 0.0904913 0)
(-1.80687 0.0883915 -1.37896e-19)
(-1.83704 0.0860998 -1.69487e-22)
(-1.86595 0.0836196 1.53799e-22)
(-1.89353 0.0809567 8.46975e-20)
(-1.91971 0.0781158 0)
(-1.94441 0.0751042 -7.98326e-20)
(-1.96758 0.0719279 -8.51608e-23)
(-1.98916 0.0685908 0)
(-2.00909 0.0650982 0)
(-2.02733 0.0614582 0)
(-2.0438 0.0576799 6.72116e-20)
(-2.05845 0.0537727 0)
(-2.07123 0.0497455 0)
(-2.08208 0.0456073 0)
(-2.09095 0.0413673 0)
(-2.09781 0.0370346 0)
(-2.10261 0.0326188 5.07728e-20)
(-2.10532 0.0281281 0)
(-2.10589 0.0235719 4.47201e-20)
(-2.10429 0.0189583 4.16746e-20)
(-2.10049 0.0142995 -3.85713e-20)
(-2.09446 0.00960769 0)
(-2.08618 0.00490102 -3.21506e-20)
(-2.07565 0.000193893 0)
(-2.06289 -0.00449395 -2.54683e-20)
(-2.04784 -0.0091554 2.20381e-20)
(-2.03049 -0.0137886 5.64423e-20)
(-2.01083 -0.0183911 0)
(-1.98881 -0.022953 3.51726e-20)
(-1.96443 -0.0274593 8.72578e-21)
(-1.93769 -0.0319015 0)
(-1.90856 -0.0362733 1.71864e-21)
(-1.87707 -0.0405668 -5.83326e-21)
(-1.84322 -0.0447741 2.08072e-20)
(-1.80703 -0.0488869 0)
(-1.76851 -0.052897 1.51688e-20)
(-1.7277 -0.0567975 1.91578e-20)
(-1.68462 -0.0605808 6.81942e-20)
(-1.63932 -0.0642391 0)
(-1.59182 -0.0677618 0)
(-1.54219 -0.0711388 0)
(-1.49045 -0.0743602 3.80859e-20)
(-1.43667 -0.0774194 0)
(-1.38092 -0.0803073 0)
(-1.32325 -0.083017 -5.22186e-20)
(-1.26376 -0.0855475 -5.64332e-20)
(-1.20251 -0.0878951 0)
(-1.1396 -0.0900568 0)
(-1.0751 -0.0920238 -1.38141e-19)
(-1.00912 -0.0937889 0)
(-0.941757 -0.0953448 1.5489e-19)
(-0.873109 -0.0966879 1.61343e-19)
(-0.803283 -0.0978219 0)
(-0.732393 -0.0987515 0)
(-0.660552 -0.0994774 -1.85846e-19)
(-0.587873 -0.100002 -1.9155e-21)
(-0.514468 -0.100328 -1.91935e-21)
(-0.440451 -0.100455 0)
(-0.365935 -0.100385 -4.36338e-19)
(-0.291038 -0.100117 0)
(-0.215882 -0.0996514 0)
(-0.140594 -0.0989829 0)
(-0.0653076 -0.098105 2.48401e-19)
(0.0098515 -0.097005 0)
(0.0847401 -0.0956604 -5.09639e-19)
(0.159199 -0.0940427 -2.58723e-19)
(0.233086 -0.0921284 0)
(0.306292 -0.0899589 -2.6272e-19)
(0.378745 -0.0876875 0)
(0.450586 -0.0853913 0)
(0.521828 -0.0830197 -8.18047e-19)
(0.592355 -0.0806125 5.54371e-19)
(0.662034 -0.0782113 0)
(0.730759 -0.0758266 5.7484e-19)
(0.798449 -0.0734509 -2.93948e-19)
(0.865037 -0.0710743 0)
(0.930466 -0.0686889 0)
(0.994678 -0.0662917 0)
(1.05761 -0.0638822 -9.36597e-19)
(1.11922 -0.0614653 0)
(1.17945 -0.0590461 -3.21967e-19)
(1.23826 -0.0566333 0)
(1.29562 -0.0542336 0)
(1.35148 -0.051855 0)
(1.40584 -0.0495005 0)
(1.45865 -0.0471705 0)
(1.5099 -0.0448561 0)
(1.55954 -0.0425401 -6.95286e-19)
(1.60752 -0.0401824 0)
(1.65374 -0.037717 -3.54804e-19)
(1.69803 -0.0350273 1.0719e-18)
(1.74013 -0.0319175 0)
(1.77948 -0.0280345 0)
(1.81589 -0.0226901 -7.33327e-19)
(1.84606 -0.0147933 -7.41933e-19)
(1.87757 -0.00232962 7.5078e-19)
(1.8765 0.0236056 7.63319e-19)
(0.000162479 -0.00511014 -2.31109e-19)
(0.000950646 -0.0107656 -3.27873e-19)
(0.0017036 -0.0130527 -2.09188e-19)
(0.00198091 -0.0124817 -9.79127e-20)
(0.00142686 -0.00982117 0)
(-0.000119328 -0.00580343 1.66735e-19)
(-0.00268986 -0.0010257 -7.70611e-20)
(-0.0062548 0.00407106 0)
(-0.0107581 0.00917657 -6.7679e-20)
(-0.0161359 0.0140803 0)
(-0.0223233 0.0186475 1.23055e-19)
(-0.0292583 0.0228011 0)
(-0.0368831 0.0265086 5.73741e-20)
(-0.0451444 0.0297707 1.11495e-19)
(-0.0539945 0.0326129 -1.0869e-19)
(-0.0633915 0.0350766 0)
(-0.0732993 0.0372127 -1.04119e-19)
(-0.0836888 0.0390763 0)
(-0.094537 0.0407217 0)
(-0.105828 0.0421999 -9.91099e-20)
(-0.117551 0.0435583 0)
(-0.129702 0.0448401 7.84334e-23)
(-0.142282 0.0460848 0)
(-0.155294 0.0473268 0)
(-0.168746 0.0485958 -8.84133e-23)
(-0.182652 0.0499156 -9.21352e-20)
(-0.197025 0.0513051 -9.10082e-20)
(-0.211883 0.0527781 -9.008e-20)
(-0.227247 0.0543447 0)
(-0.243138 0.0560116 -1.75986e-19)
(-0.25958 0.0577824 0)
(-0.276596 0.059659 -8.58986e-20)
(-0.294212 0.0616413 0)
(-0.312451 0.0637281 0)
(-0.331339 0.0659173 8.281e-20)
(-0.3509 0.0682058 0)
(-0.371155 0.0705899 -8.0725e-20)
(-0.392126 0.0730654 -1.27433e-22)
(-0.413831 0.0756288 1.57344e-19)
(-0.436287 0.0782754 -1.55072e-19)
(-0.459509 0.0809996 0)
(-0.48351 0.0837949 0)
(-0.508301 0.0866545 -7.41561e-20)
(-0.533887 0.0895706 0)
(-0.560273 0.0925346 -7.22614e-20)
(-0.587458 0.0955371 7.11715e-20)