/*--------------------------------*- C++ -*----------------------------------*\
| =========                 |                                                 |
| \\      /  F ield         | OpenFOAM: The Open Source CFD Toolbox           |
|  \\    /   O peration     | Version:  2412                                  |
|   \\  /    A nd           | Website:  www.openfoam.com                      |
|    \\/     M anipulation  |                                                 |
\*---------------------------------------------------------------------------*/
FoamFile
{
    version     2.0;
    format      ascii;
    arch        "LSB;label=32;scalar=64";
    class       volScalarField;
    location    "120";
    object      epsilon;
}
// * * * * * * * * * * * * * * * * * * * * * * * * * * * * * * * * * * * * * //

dimensions      [0 2 -3 0 0 0 0];

internalField   nonuniform List<scalar> 
120000
(
0.062865309
0.13952648
0.2084409
0.25270751
0.27175471
0.2726387
0.26282922
0.24789661
0.23136763
0.21516106
0.20015385
0.18665209
0.17468029
0.16413194
0.15484761
0.14665687
0.13939922
0.13293249
0.12713482
0.12190362
0.11715325
0.11281232
0.10882101
0.10512875
0.10169231
0.098474183
0.095441384
0.092564536
0.089817269
0.087176127
0.084620672
0.082135391
0.0797103
0.077351355
0.075086161
0.073047826
0.071349364
0.070440968
0.070861652
0.073871387
0.081244956
0.092534993
0.10587761
0.1197323
0.13329158
0.14619955
0.15819592
0.16903275
0.17848031
0.1863752
0.19263561
0.19725482
0.20023609
0.20155409
0.20130178
0.1996222
0.19664288
0.19225578
0.18611995
0.17727408
0.1642394
0.14728369
0.12926351
0.11316388
0.10017764
0.090222667
0.082816111
0.07737812
0.073328781
0.070213457
0.067714049
0.065613049
0.063765478
0.062078643
0.060495305
0.058983575
0.057528019
0.056123128
0.054768609
0.053466397
0.052219106
0.051029234
0.049898751
0.048828879
0.04782003
0.046871831
0.04598346
0.045154889
0.044382441
0.043663592
0.0429958
0.042376327
0.041802168
0.041269948
0.040776597
0.040315946
0.039891305
0.039470449
0.039135015
0.03867746
0.073781882
0.16721005
0.25309958
0.31291184
0.3449917
0.35563544
0.35230901
0.34113001
0.32634352
0.31051115
0.29498143
0.28036682
0.26688301
0.25454859
0.24329431
0.23302032
0.22362326
0.215007
0.20708548
0.19978245
0.19303032
0.18676874
0.18094343
0.17550519
0.17040913
0.16561403
0.16108175
0.15677682
0.15266618
0.1487192
0.1449079
0.14120886
0.13760369
0.13408968
0.13066607
0.12743702
0.12453267
0.12241624
0.12157394
0.12352388
0.13079425
0.14299518
0.15768735
0.17291686
0.18777308
0.20193007
0.21516974
0.2272753
0.23787378
0.24686593
0.25419034
0.25977342
0.26366608
0.26605857
0.26710342
0.26690728
0.26557448
0.26306646
0.25918053
0.2531027
0.24267952
0.22755268
0.20995817
0.1925768
0.17692717
0.16357708
0.15253369
0.14348862
0.13602111
0.12973796
0.12433084
0.11957541
0.11531361
0.11143218
0.10784306
0.10449979
0.10137368
0.098445119
0.095700355
0.093129023
0.090722766
0.088474347
0.086377081
0.084424471
0.082610036
0.080927261
0.079369311
0.07792831
0.076599502
0.075376873
0.074254109
0.07322495
0.072283204
0.071422655
0.070638318
0.069923219
0.069275138
0.068659633
0.068154675
0.067525679
0.07346554
0.16634804
0.25143414
0.31111308
0.34431019
0.35730857
0.35719371
0.34961104
0.33843906
0.32603647
0.3136728
0.30194546
0.29107837
0.28110244
0.27195838
0.26355374
0.25579204
0.24858547
0.24185901
0.23555052
0.22960913
0.2239931
0.21866763
0.21360296
0.20877278
0.20415297
0.1997207
0.1954538
0.19133037
0.18732889
0.18342828
0.17960982
0.17585673
0.17216538
0.16853236
0.16499463
0.16158735
0.15870381
0.15652413
0.15679646
0.16237842
0.17237273
0.18389145
0.19514988
0.20577759
0.21595254
0.22574714
0.23508862
0.24384911
0.25187818
0.25900454
0.2649988
0.26944219
0.27251324
0.2743932
0.27525331
0.27528176
0.27455833
0.27310342
0.26993269
0.26262744
0.25046905
0.23559564
0.22049431
0.2064919
0.19411522
0.18341397
0.17425756
0.1664137
0.15962156
0.15365725
0.14834556
0.14355519
0.13918999
0.1351791
0.13147224
0.12802509
0.12480176
0.1217887
0.11897565
0.11635402
0.11391569
0.11165255
0.1095564
0.10761893
0.10583188
0.10418709
0.10267657
0.10129272
0.10002811
0.098875493
0.097827858
0.096878291
0.096020105
0.095245771
0.094546097
0.093920842
0.093344018
0.092876292
0.092312511
0.073416341
0.16595486
0.25015409
0.30842676
0.33999449
0.35159138
0.35066127
0.34296089
0.33228772
0.32084336
0.30974078
0.29945239
0.29011391
0.2816987
0.2741114
0.26723703
0.26096449
0.25519584
0.24984846
0.24485413
0.2401571
0.23571181
0.23148086
0.22743315
0.22354234
0.21978555
0.21614226
0.21259347
0.20912093
0.20570684
0.20233341
0.19898405
0.19564134
0.19229724
0.18893
0.18556282
0.18208318
0.17885129
0.17527619
0.17404477
0.17416116
0.17577438
0.17762828
0.17897082
0.18038923
0.18255935
0.18565405
0.18958826
0.19423022
0.19942167
0.20497213
0.21086265
0.21623062
0.22081259
0.22470758
0.22801576
0.23084723
0.23324416
0.23520291
0.23625394
0.23371057
0.22583574
0.21518591
0.20435486
0.19432204
0.18540216
0.1776899
0.1710924
0.16538605
0.16038297
0.15595334
0.15199372
0.1484208
0.14516934
0.142189
0.1394414
0.13689646
0.13453054
0.13231947
0.13024785
0.12831111
0.12650596
0.12482913
0.12327687
0.12184483
0.12052825
0.11932209
0.1182212
0.11722042
0.11631459
0.11549858
0.11476738
0.11411587
0.11353926
0.11303185
0.1125893
0.1122043
0.11187032
0.11159467
0.11129647
0.073400152
0.1657986
0.24964689
0.30737962
0.33831612
0.34926767
0.34775644
0.33959687
0.32861095
0.31700211
0.30587235
0.29567652
0.28653128
0.27839282
0.27115181
0.26468224
0.25886429
0.25359285
0.24877903
0.24434875
0.2402405
0.23640295
0.23279287
0.22937334
0.22611239
0.2229818
0.21995618
0.21701209
0.2141274
0.21128083
0.20845121
0.20561828
0.20275903
0.19985802
0.19687119
0.19382024
0.19044543
0.18721049
0.18214954
0.17937444
0.16657873
0.15476327
0.14423704
0.13403579
0.12488205
0.11731138
0.11124859
0.10647788
0.10283158
0.100103
0.098091685
0.096932863
0.09774669
0.10016514
0.10369662
0.10797542
0.11273516
0.11786271
0.12350389
0.12911039
0.14093082
0.14682475
0.14844559
0.14834146
0.14728362
0.14576135
0.14419931
0.14278491
0.14153849
0.14043319
0.13943754
0.13852147
0.13765484
0.13682568
0.13602665
0.13525319
0.13450039
0.13376424
0.13304561
0.13234697
0.13167237
0.13102648
0.13041384
0.12983842
0.12930333
0.12881085
0.12836245
0.12795895
0.12760054
0.12728694
0.12701744
0.126791
0.1266061
0.12646146
0.12635397
0.12628424
0.12624185
0.12624212
0.12623913
0.12628457
0.073387991
0.16569553
0.24932799
0.30675329
0.33735408
0.34796387
0.34613092
0.33769996
0.32650774
0.31475845
0.30354779
0.29332068
0.28418272
0.27608023
0.26889638
0.26250025
0.25676941
0.2515979
0.24689713
0.24259396
0.23862794
0.23494862
0.23151328
0.22828498
0.22523122
0.22232272
0.21953255
0.21683543
0.214207
0.2116235
0.20906086
0.20649552
0.20389981
0.20125247
0.19849602
0.19564571
0.19238125
0.18915609
0.18360481
0.17958411
0.1653817
0.15274523
0.14095161
0.12865191
0.11679588
0.10613314
0.096715803
0.088419426
0.081126419
0.074715381
0.06892528
0.06366997
0.059384175
0.056476397
0.055169177
0.05552518
0.057491586
0.060534313
0.065117126
0.067132323
0.073871072
0.079563086
0.086108651
0.093052698
0.099196739
0.10435552
0.10876847
0.11260553
0.1159564
0.11888975
0.12145955
0.12370566
0.12566051
0.12735488
0.12881829
0.13007844
0.13116074
0.13208827
0.13288226
0.13356222
0.13414594
0.13464954
0.1350874
0.1354722
0.13581489
0.13612487
0.13641011
0.13667731
0.13693204
0.13717887
0.13742147
0.13766297
0.1379055
0.13815117
0.1383995
0.13865562
0.13890716
0.13918833
0.13940937
0.13972994
0.073380706
0.16562879
0.24910737
0.3062965
0.33663319
0.34699049
0.34494738
0.336368
0.32508823
0.31329934
0.30208273
0.29187133
0.28276133
0.2746922
0.26754265
0.2611792
0.25547828
0.25033381
0.24565784
0.24137833
0.23743617
0.23378234
0.23037546
0.22717981
0.22416382
0.22129893
0.21855863
0.21591774
0.21335173
0.21083635
0.2083468
0.20585839
0.20334204
0.20077459
0.19809624
0.19532024
0.19212881
0.18897233
0.18349112
0.1794408
0.1652539
0.15276938
0.14120478
0.12910462
0.11737473
0.10676208
0.097321617
0.088937253
0.081503453
0.074913962
0.068933968
0.063484366
0.058871925
0.055434356
0.053489175
0.053248615
0.054761042
0.057424921
0.061799243
0.063600569
0.068863891
0.072901887
0.078710985
0.085793721
0.092635621
0.098834837
0.1044671
0.10958425
0.11421096
0.11840723
0.12219622
0.12558331
0.1285969
0.13127197
0.13364403
0.1357467
0.1376109
0.13926489
0.14073413
0.14204145
0.14320738
0.14425028
0.14518649
0.14603051
0.14679505
0.14749121
0.14812869
0.14871589
0.14926006
0.1497674
0.15024323
0.15069495
0.15112584
0.1515375
0.15192994
0.15230994
0.15266471
0.15303657
0.15331919
0.15373189
0.073376058
0.16558296
0.24894822
0.30595348
0.33607797
0.34623073
0.34401432
0.33530773
0.32394906
0.31212267
0.30090069
0.29070721
0.28163053
0.27360348
0.26649962
0.26018173
0.25452369
0.24941791
0.24477569
0.24052485
0.23660658
0.23297241
0.22958166
0.22639937
0.22339471
0.22053979
0.21780862
0.21517645
0.21261902
0.21011222
0.20763131
0.2051516
0.20264474
0.20008814
0.19742948
0.19468389
0.19159595
0.18860375
0.18378172
0.18082301
0.16791629
0.15647891
0.14665193
0.13707197
0.12825634
0.1207037
0.11435283
0.10903077
0.10463239
0.10103758
0.098124938
0.096076167
0.095124929
0.09547973
0.097250723
0.10114898
0.10635184
0.11234646
0.11876307
0.12541345
0.13749005
0.14335373
0.14556773
0.14678447
0.14752589
0.14809236
0.14877975
0.14967506
0.15073226
0.15186379
0.15303235
0.15422454
0.15541244
0.15657077
0.15768126
0.15873195
0.15971607
0.16063161
0.16147846
0.16225815
0.16297374
0.16362923
0.16422909
0.16477785
0.16527995
0.16573958
0.16616071
0.16654697
0.16690161
0.16722759
0.16752772
0.16780152
0.16805108
0.16828065
0.16849146
0.1686896
0.16886543
0.16905476
0.16917373
0.16940721
0.07337285
0.16555029
0.24883103
0.30569235
0.33564326
0.34562322
0.34325573
0.33443438
0.32300232
0.31114012
0.29991231
0.28973501
0.28068918
0.27270149
0.26564071
0.25936624
0.25374967
0.24868202
0.24407386
0.23985277
0.23595999
0.23234733
0.22897446
0.22580681
0.22281393
0.21996825
0.21724404
0.21461671
0.21206211
0.20955618
0.20707434
0.2045922
0.20208326
0.19952639
0.19688508
0.19416983
0.1912664
0.18843144
0.18517464
0.18325015
0.18279585
0.18492953
0.18797685
0.19039151
0.19231602
0.19431331
0.19659765
0.1992055
0.20216949
0.20550685
0.20920819
0.21328956
0.21777512
0.22267207
0.22792036
0.23310001
0.23818449
0.2432073
0.24793416
0.25200382
0.25228622
0.2471632
0.23940381
0.23160377
0.22458869
0.21854918
0.21354708
0.20949911
0.20623791
0.20359944
0.20145148
0.1996896
0.19823099
0.19701151
0.19598158
0.19510308
0.19434642
0.19368741
0.19310772
0.19259322
0.19213265
0.19171679
0.19133792
0.1909894
0.19066551
0.19036139
0.19007291
0.1897966
0.1895295
0.18926911
0.18901302
0.1887595
0.18850726
0.18825583
0.18800419
0.18775433
0.1875013
0.18726161
0.18700483
0.18678673
0.073370552
0.16552643
0.24874318
0.30549078
0.33529895
0.34513307
0.34263548
0.33371262
0.32221268
0.31031386
0.29907485
0.28890547
0.27988094
0.27192299
0.26489652
0.258658
0.25307698
0.24804312
0.24346615
0.23927322
0.23540543
0.23181461
0.22846058
0.22530899
0.22232958
0.21949495
0.2167795
0.21415871
0.21160847
0.20910473
0.20662314
0.20413981
0.20163044
0.19907684
0.19645806
0.19379269
0.19107207
0.18851568
0.18631529
0.18558454
0.18878407
0.19691061
0.20780811
0.21913802
0.22998386
0.24024702
0.24990434
0.2589051
0.26723433
0.2748942
0.28187524
0.28816118
0.29374173
0.29862678
0.30284755
0.3061875
0.30904477
0.31162494
0.3139174
0.31553412
0.31371338
0.30746574
0.29857575
0.2892181
0.28044395
0.2726096
0.26582084
0.26001834
0.25504784
0.25074573
0.2469761
0.2436329
0.24063524
0.23792298
0.23545155
0.23318718
0.23110181
0.22917293
0.22738247
0.22571558
0.2241596
0.2227032
0.22133583
0.22004747
0.21882874
0.21767104
0.21656666
0.21550872
0.21449113
0.21350854
0.21255633
0.21163065
0.21072842
0.20984724
0.20898557
0.20814149
0.20731753
0.20650346
0.20574492
0.20490951
0.073368858
0.1655086
0.24867625
0.30533352
0.33502437
0.34473557
0.34212602
0.33311323
0.32155049
0.30961512
0.29836167
0.288195
0.27918559
0.27125098
0.26425257
0.25804418
0.25249344
0.2474887
0.24293885
0.2387706
0.23492485
0.23135344
0.22801631
0.22487922
0.22191212
0.21908771
0.21638051
0.21376604
0.2112202
0.20871898
0.20623826
0.20375469
0.20124615
0.19869789
0.19610218
0.19349123
0.19092503
0.18864616
0.18706973
0.18714559
0.1910679
0.19993906
0.21252424
0.22670216
0.24113214
0.25521661
0.26860469
0.28103514
0.29235357
0.30248163
0.31137794
0.3190269
0.32544406
0.33068318
0.334843
0.33804643
0.34041409
0.34204372
0.34295638
0.34279715
0.34012612
0.33390512
0.32520989
0.31588306
0.30704895
0.29917854
0.29244601
0.2868243
0.2821495
0.27821584
0.2748356
0.27185679
0.26916439
0.26667707
0.26434015
0.26211548
0.25995844
0.25785914
0.25581488
0.25382589
0.25189262
0.25001406
0.24818696
0.24640754
0.24467183
0.24297611
0.24131688
0.23969092
0.23809531
0.23652757
0.23498571
0.23346831
0.23197464
0.23050411
0.22905791
0.22763287
0.22624172
0.22484703
0.22357878
0.22209889
0.073367579
0.16549503
0.24862461
0.30520991
0.33480442
0.34441227
0.34170674
0.33261509
0.32099546
0.30902521
0.29775587
0.28758833
0.27858911
0.27067218
0.263696
0.25751208
0.25198636
0.24700598
0.24247908
0.23833192
0.23450518
0.23095064
0.22762828
0.22450398
0.22154775
0.21873242
0.21603257
0.21342372
0.21088179
0.20838277
0.20590272
0.20341876
0.20091045
0.19836604
0.19578743
0.19321916
0.19076311
0.18868872
0.18749293
0.18807588
0.19205159
0.20045239
0.21241404
0.22622976
0.24068935
0.25517149
0.26926422
0.28263013
0.29503415
0.30620562
0.31602904
0.32448453
0.3315861
0.3373955
0.34202105
0.34559778
0.34826233
0.35006917
0.35089232
0.35030859
0.34731161
0.34119902
0.33276244
0.32357151
0.31475874
0.3068764
0.30017956
0.29472359
0.29040078
0.28702002
0.28437475
0.28227339
0.28055119
0.27907546
0.27774542
0.27648814
0.27525139
0.2740003
0.27271349
0.27137918
0.26999254
0.26854486
0.26702354
0.26543634
0.26379141
0.2620973
0.26036025
0.25858616
0.25678087
0.25495033
0.25310069
0.25123816
0.24936917
0.2474994
0.24563652
0.24377993
0.24195426
0.24010053
0.23842589
0.2364106
0.073366597
0.16548457
0.24858443
0.3051123
0.33462797
0.34414944
0.34136231
0.33220228
0.32053199
0.30852932
0.29724369
0.28707284
0.27808009
0.27017647
0.26321792
0.25705395
0.25154897
0.24658906
0.24208163
0.23795246
0.23414202
0.23060199
0.22729234
0.22417902
0.22123211
0.21842451
0.21573083
0.21312661
0.21058776
0.20809022
0.2056101
0.20312476
0.20061465
0.1980698
0.19549732
0.19294903
0.19054764
0.18857929
0.18757269
0.18840166
0.19240936
0.20046388
0.21188717
0.22516511
0.2391312
0.25317027
0.26688889
0.27996235
0.29215636
0.30331553
0.31333932
0.32215269
0.32957992
0.33569131
0.34059299
0.3444178
0.34729162
0.34924797
0.35014042
0.3495331
0.34658184
0.34071396
0.33258684
0.32362998
0.31496368
0.30716497
0.30051686
0.29511735
0.29090468
0.28772399
0.28539242
0.28372916
0.2825673
0.28176074
0.28118714
0.2807472
0.28036212
0.27997075
0.27952698
0.27899737
0.27835898
0.27759698
0.2767003
0.27566559
0.27449443
0.27319393
0.27174537
0.27016174
0.26845897
0.26665419
0.2647652
0.26280861
0.26080032
0.25875442
0.25668658
0.25460115
0.25253329
0.25041162
0.24849732
0.24614929
0.073365835
0.16547645
0.24855305
0.3050352
0.33448677
0.34393669
0.34108093
0.33186246
0.32014788
0.30811591
0.29681451
0.28663901
0.27765011
0.26975642
0.26281174
0.25666387
0.2511759
0.24623294
0.24174175
0.23762768
0.23383097
0.23030319
0.2270043
0.22390026
0.22096121
0.21816009
0.21547153
0.21287107
0.21033453
0.20783778
0.20535682
0.20286888
0.20035437
0.19780342
0.19522351
0.19266763
0.19026013
0.18828968
0.18728879
0.18813577
0.19218105
0.20029534
0.2117896
0.22513489
0.23915298
0.25322012
0.26693771
0.27997978
0.29211383
0.30319298
0.31312405
0.32186031
0.32921638
0.33526039
0.34010398
0.34388471
0.34673203
0.3486814
0.34958615
0.34900932
0.34609283
0.34024163
0.33210611
0.32312713
0.31443744
0.30662089
0.2999671
0.29458144
0.29040892
0.2873004
0.28507752
0.28356241
0.28258902
0.28200984
0.28169877
0.28155063
0.28147924
0.2814152
0.28130379
0.28110315
0.28078251
0.28032069
0.27970443
0.2789272
0.27798795
0.27689075
0.27564107
0.27424934
0.27269691
0.27099889
0.26917639
0.26725219
0.2652489
0.2631865
0.26108565
0.25895435
0.25683218
0.25464598
0.25267223
0.2502373
0.073365244
0.16547013
0.24852858
0.30497461
0.33437464
0.34376612
0.34085356
0.33158604
0.31983362
0.30777593
0.29646
0.2862793
0.27729243
0.26940601
0.26247211
0.25633707
0.25086286
0.24593377
0.24145596
0.2373544
0.23356912
0.23005155
0.22676164
0.22366534
0.22073282
0.21793705
0.21525265
0.21265513
0.21012024
0.20762369
0.20514118
0.20264947
0.20012795
0.19756516
0.19496424
0.19237259
0.18989759
0.18781719
0.18664108
0.18728316
0.19137656
0.19995451
0.21211884
0.22612451
0.24073475
0.2553142
0.26944745
0.28280081
0.29514607
0.30626122
0.31599883
0.32435019
0.33132839
0.33699854
0.34149963
0.34499341
0.34763536
0.34948394
0.35042143
0.35000698
0.3471856
0.34118931
0.33279009
0.32358901
0.31475312
0.30686243
0.30020031
0.29484905
0.2907218
0.28764103
0.28540652
0.28382574
0.28272593
0.28196034
0.28140961
0.2809795
0.28059723
0.28020771
0.27977013
0.279255
0.27864179
0.27791711
0.2770733
0.27610715
0.27501912
0.27381234
0.27249137
0.27106079
0.26950501
0.26783776
0.26607522
0.26423476
0.26233389
0.26038847
0.25841535
0.25642089
0.25443903
0.25240588
0.25056488
0.24831625
0.073364787
0.16546525
0.2485097
0.30492761
0.33428696
0.34363169
0.34067321
0.33136558
0.31958175
0.30750228
0.29617359
0.28598773
0.2770017
0.26912052
0.26219486
0.25606985
0.25060657
0.24568857
0.24122154
0.23713011
0.23335409
0.22984484
0.22656222
0.22347221
0.22054498
0.21775351
0.21507241
0.21247715
0.20994337
0.20744656
0.204962
0.20246571
0.19993522
0.19735608
0.19472269
0.1920717
0.18947237
0.18718187
0.18563763
0.185813
0.18991653
0.19904036
0.21188235
0.22628866
0.24092168
0.25520579
0.26881251
0.28149217
0.2930887
0.30351396
0.31270823
0.32063658
0.32728693
0.33259724
0.33678095
0.34005272
0.34263075
0.34463759
0.34603235
0.34639825
0.34420685
0.33831309
0.32978005
0.32051916
0.31172798
0.30394235
0.29739774
0.29211311
0.2879453
0.28468539
0.2821259
0.280085
0.27841316
0.27699383
0.27573991
0.27458806
0.27349302
0.27242285
0.27135496
0.27027308
0.26916581
0.26802532
0.26684648
0.26562601
0.2643625
0.2630482
0.26167521
0.26024787
0.25877026
0.25724795
0.2556874
0.25409578
0.25248086
0.25085012
0.24921252
0.24757085
0.2459471
0.24429718
0.242793
0.24099916
0.07336444
0.16546156
0.24849547
0.30489209
0.3342203
0.34352888
0.34053458
0.33119538
0.31938655
0.30728945
0.29595016
0.28575968
0.27677378
0.26889627
0.26197672
0.25585933
0.25040442
0.24549501
0.24103636
0.23695284
0.23318408
0.22968134
0.22640445
0.22331937
0.22039629
0.21760816
0.21492959
0.21233601
0.20980291
0.20730558
0.20481879
0.20231765
0.19977729
0.19717976
0.19450671
0.19178267
0.18901159
0.18643493
0.1842718
0.18368179
0.18708791
0.19541587
0.20647772
0.21798697
0.2291037
0.23979372
0.25006898
0.25988054
0.26918787
0.27794709
0.28609227
0.29353865
0.29998897
0.30545569
0.31013165
0.3142415
0.31799974
0.3215361
0.32481283
0.32740137
0.32639092
0.32070834
0.31221506
0.3031995
0.2948049
0.28744721
0.28126172
0.27619028
0.2720467
0.26862574
0.26576725
0.2633417
0.26124722
0.25940594
0.25775946
0.25626415
0.25488717
0.25360371
0.25239093
0.25122853
0.25010502
0.24901164
0.24794124
0.24688761
0.24584525
0.24480877
0.24377299
0.242734
0.24168918
0.24063706
0.23957727
0.23851041
0.23743802
0.2363623
0.23528641
0.23421235
0.23314898
0.23208131
0.23108676
0.22995511
0.073364186
0.16545886
0.2484852
0.30486651
0.33417215
0.34345434
0.34043372
0.33107118
0.3192437
0.3071333
0.29578584
0.28559162
0.27660552
0.26873047
0.26181522
0.2557033
0.25025447
0.24535132
0.24089882
0.23682112
0.23305771
0.22955978
0.22628713
0.22320569
0.22028565
0.21749997
0.21482324
0.21223082
0.20969812
0.2072002
0.20471131
0.20220573
0.19965602
0.19704107
0.1943272
0.19153201
0.18855652
0.18568944
0.1824629
0.1807096
0.18041141
0.1826859
0.18592218
0.18865084
0.19106729
0.19377522
0.19701949
0.20085264
0.20531458
0.21040975
0.21613716
0.22252089
0.22957926
0.2365362
0.24341943
0.25018257
0.25683309
0.26331924
0.26946065
0.27476335
0.27610601
0.27184518
0.26473911
0.2574501
0.25088689
0.24528854
0.24073575
0.23714834
0.2343515
0.23216945
0.23045911
0.22910799
0.22802945
0.22715833
0.22644607
0.22585614
0.22536071
0.22493829
0.22457167
0.22424655
0.22395136
0.22367673
0.22341496
0.22315963
0.2229053
0.22264736
0.22238186
0.22210561
0.2218161
0.22151158
0.22119097
0.22085396
0.22050085
0.22013305
0.2197515
0.21936094
0.21895862
0.21856356
0.21815279
0.21776102
0.073364014
0.16545704
0.24847843
0.30484981
0.33414074
0.34340569
0.34036785
0.33098997
0.31915015
0.30703088
0.2956779
0.28548107
0.27649469
0.26862112
0.26170859
0.25560019
0.25015531
0.24525625
0.24080777
0.23673388
0.232974
0.22947924
0.22620937
0.22313033
0.2202123
0.21742822
0.21475269
0.21216101
0.2096285
0.20713008
0.20463956
0.20213063
0.19957351
0.19694531
0.19419641
0.19134969
0.18816826
0.18512646
0.18035525
0.17759849
0.16522177
0.15449522
0.14538808
0.13642707
0.12808775
0.12090148
0.11487019
0.10988599
0.10591854
0.10280584
0.10064148
0.099727293
0.10070104
0.104543
0.11021465
0.11712211
0.12475195
0.13279123
0.14119368
0.14933986
0.16345329
0.17135618
0.17511303
0.17736667
0.17877732
0.17975917
0.18070661
0.1817873
0.1830134
0.18435303
0.18576659
0.18721424
0.18866183
0.19008371
0.19146216
0.19278559
0.19404701
0.1952427
0.19637117
0.19743236
0.19842709
0.1993567
0.20022285
0.2010274
0.20177224
0.20245932
0.20309059
0.20366803
0.20419366
0.20466956
0.20509784
0.20548086
0.20582095
0.20612155
0.20638402
0.20661759
0.20681074
0.20701383
0.20711709
0.20736893
0.073363912
0.16545602
0.2484749
0.30484137
0.33412508
0.34338158
0.34033531
0.3309499
0.319104
0.30698032
0.29562455
0.28542635
0.27643976
0.26856687
0.26165564
0.25554894
0.25010599
0.24520893
0.24076243
0.23669043
0.23293229
0.2294391
0.22617062
0.22309277
0.22017573
0.21739245
0.2147175
0.21212618
0.20959376
0.20709504
0.20460365
0.20209289
0.19953175
0.1968961
0.19412818
0.19124912
0.18796054
0.18475499
0.17935285
0.17552501
0.16202784
0.15055601
0.14006693
0.12886992
0.11775048
0.10746534
0.098130692
0.08970364
0.082159246
0.075467172
0.069302658
0.063941145
0.059793215
0.057388984
0.057250812
0.059339919
0.063429688
0.068719415
0.07552732
0.079308825
0.087246226
0.093879853
0.10173312
0.11040533
0.11849664
0.12569917
0.13219267
0.13810741
0.14350871
0.148453
0.15298998
0.1571582
0.16098898
0.16451029
0.16774799
0.17072609
0.17346689
0.17599102
0.17831744
0.18046345
0.18244465
0.18427508
0.18596729
0.18753246
0.1889806
0.19032063
0.19156058
0.19270769
0.19376849
0.19474899
0.19565463
0.19649059
0.19726151
0.19797301
0.19862744
0.19923755
0.19978682
0.2003452
0.20075056
0.20138009
0.073363912
0.16545602
0.2484749
0.30484137
0.33412508
0.34338158
0.34033531
0.3309499
0.319104
0.30698032
0.29562455
0.28542635
0.27643976
0.26856687
0.26165564
0.25554894
0.25010599
0.24520893
0.24076243
0.23669043
0.23293229
0.2294391
0.22617062
0.22309277
0.22017573
0.21739245
0.2147175
0.21212618
0.20959376
0.20709504
0.20460365
0.20209289
0.19953175
0.1968961
0.19412818
0.19124912
0.18796055
0.18475499
0.17935285
0.17552501
0.16202785
0.15055601
0.14006693
0.12886992
0.11775047
0.10746533
0.098130672
0.089703608
0.082159197
0.075467101
0.069302562
0.063941014
0.059793022
0.057388674
0.057250388
0.059339364
0.063429008
0.06871862
0.075526415
0.079307823
0.087245049
0.093878451
0.10173151
0.11040355
0.11849473
0.12569716
0.13219057
0.13810525
0.14350648
0.1484507
0.15298762
0.15715576
0.16098646
0.16450767
0.16774525
0.17072323
0.17346387
0.17598783
0.17831406
0.18045984
0.18244079
0.18427093
0.18596281
0.18752761
0.18897534
0.1903149
0.19155434
0.19270088
0.19376109
0.19474094
0.19564588
0.19648112
0.19725128
0.197962
0.19861563
0.19922493
0.19977338
0.20033096
0.20073558
0.20136421
0.073364014
0.16545704
0.24847843
0.30484981
0.33414074
0.34340569
0.34036785
0.33098997
0.31915015
0.30703089
0.2956779
0.28548107
0.27649469
0.26862112
0.26170859
0.25560019
0.25015531
0.24525625
0.24080777
0.23673389
0.232974
0.22947924
0.22620937
0.22313033
0.2202123
0.21742822
0.21475269
0.21216101
0.2096285
0.20713008
0.20463957
0.20213063
0.19957352
0.19694531
0.19419642
0.19134969
0.18816826
0.18512647
0.18035526
0.17759849
0.16522178
0.15449523
0.14538808
0.13642705
0.1280877
0.12090141
0.11487007
0.10988581
0.10591829
0.10280551
0.10064103
0.099726696
0.10070005
0.10454169
0.11021305
0.11712026
0.12474988
0.13278895
0.14119121
0.14933722
0.16345046
0.17135307
0.17510966
0.17736307
0.17877352
0.17975519
0.18070244
0.18178296
0.18300887
0.1843483
0.18576163
0.18720902
0.18865632
0.19007789
0.19145598
0.19277903
0.19404
0.19523518
0.19636308
0.19742364
0.19841766
0.19934646
0.20021171
0.20101523
0.20175893
0.20244473
0.2030746
0.20365051
0.2041745
0.20464863
0.20507504
0.2054561
0.20579414
0.20609263
0.20635294
0.20658433
0.20677529
0.20697618
0.20707745
0.2073269
0.073364186
0.16545886
0.2484852
0.30486651
0.33417215
0.34345434
0.34043372
0.33107118
0.3192437
0.3071333
0.29578584
0.28559162
0.27660552
0.26873047
0.26181522
0.2557033
0.25025447
0.24535133
0.24089882
0.23682112
0.23305771
0.22955978
0.22628713
0.22320569
0.22028565
0.21749997
0.21482324
0.21223083
0.20969812
0.2072002
0.20471131
0.20220574
0.19965603
0.19704108
0.19432721
0.19153202
0.18855653
0.18568946
0.18246291
0.18070962
0.18041142
0.1826859
0.18592215
0.18865076
0.19106715
0.193775
0.19701917
0.2008522
0.20531399
0.21040898
0.21613618
0.22251965
0.22957782
0.23653454
0.2434176
0.25018059
0.25683097
0.263317
0.2694583
0.2747609
0.27610348
0.27184255
0.26473641
0.25744733
0.25088406
0.24528563
0.24073272
0.23714515
0.2343481
0.23216576
0.23045508
0.22910358
0.22802459
0.22715299
0.22644018
0.22584964
0.22535353
0.22493034
0.22456289
0.22423687
0.22394069
0.22366493
0.22340188
0.2231451
0.22288915
0.2226294
0.22236193
0.22208354
0.22179174
0.22148478
0.22116159
0.2208219
0.220466
0.22009532
0.21971084
0.21931733
0.21891205
0.21851404
0.2181006
0.21770564
0.07336444
0.16546156
0.24849547
0.30489209
0.3342203
0.34352888
0.34053458
0.33119538
0.31938655
0.30728945
0.29595016
0.28575968
0.27677378
0.26889627
0.26197672
0.25585933
0.25040442
0.24549501
0.24103636
0.23695284
0.23318408
0.22968134
0.22640446
0.22331938
0.22039629
0.21760816
0.2149296
0.21233601
0.20980291
0.20730559
0.20481879
0.20231766
0.1997773
0.19717977
0.19450672
0.19178268
0.18901161
0.18643495
0.18427182
0.18368181
0.18708794
0.19541589
0.20647772
0.21798695
0.22910364
0.2397936
0.25006879
0.25988027
0.2691875
0.27794661
0.28609167
0.29353793
0.29998818
0.30545482
0.31013068
0.31424044
0.31799861
0.32153492
0.32481162
0.32740014
0.3263898
0.32070735
0.31221421
0.30319881
0.29480438
0.28744682
0.28126145
0.27619008
0.27204636
0.26862517
0.26576638
0.26334047
0.26124556
0.25940376
0.25775669
0.25626069
0.25488292
0.25359853
0.25238508
0.25122191
0.25009746
0.24900294
0.24793118
0.24687598
0.24583182
0.24479341
0.24375555
0.24271435
0.24166718
0.24061258
0.23955017
0.2384806
0.2374054
0.23632683
0.23524804
0.23417108
0.23310482
0.23203433
0.23103718
0.22990256
0.073364787
0.16546525
0.2485097
0.30492761
0.33428696
0.34363169
0.34067321
0.33136558
0.31958175
0.30750228
0.29617359
0.28598773
0.2770017
0.26912053
0.26219486
0.25606985
0.25060657
0.24568857
0.24122154
0.23713011
0.23335409
0.22984484
0.22656222
0.22347221
0.22054499
0.21775351
0.21507242
0.21247716
0.20994337
0.20744657
0.20496201
0.20246572
0.19993523
0.1973561
0.1947227
0.19207171
0.18947239
0.1871819
0.18563766
0.18581303
0.18991656
0.19904039
0.21188239
0.2262887
0.24092171
0.25520581
0.26881251
0.28149215
0.29308866
0.30351389
0.31270812
0.32063645
0.32728681
0.33259711
0.3367808
0.34005255
0.34263056
0.34463739
0.34603215
0.34639807
0.3442067
0.338313
0.32978008
0.32051934
0.31172836
0.30394297
0.29739863
0.29211426
0.2879467
0.28468699
0.28212763
0.28008678
0.27841489
0.27699541
0.27574122
0.27458897
0.2734934
0.27242256
0.27135387
0.27027108
0.26916275
0.26802107
0.26684087
0.2656189
0.2643537
0.26303818
0.26166383
0.260235
0.25875578
0.25723172
0.25566931
0.25407577
0.25245888
0.25082616
0.24918656
0.24754296
0.24591732
0.24426563
0.24275981
0.24096427
0.073365244
0.16547013
0.24852858
0.30497461
0.33437464
0.34376612
0.34085356
0.33158604
0.31983362
0.30777593
0.29646
0.2862793
0.27729243
0.26940601
0.26247211
0.25633707
0.25086286
0.24593377
0.24145596
0.23735441
0.23356912
0.23005156
0.22676164
0.22366534
0.22073283
0.21793705
0.21525266
0.21265514
0.21012025
0.2076237
0.20514119
0.20264948
0.20012797
0.19756518
0.19496426
0.19237261
0.18989761
0.18781721
0.18664111
0.18728319
0.1913766
0.19995456
0.21211889
0.22612457
0.24073483
0.25531429
0.26944755
0.28280093
0.29514621
0.30626137
0.31599899
0.32435038
0.33132859
0.33699877
0.34149988
0.34499368
0.34763565
0.34948425
0.35042176
0.35000734
0.34718599
0.34118974
0.33279057
0.32358956
0.31475377
0.30686321
0.30020125
0.29485019
0.29072315
0.2876426
0.2854083
0.28382771
0.28272805
0.28196254
0.28141183
0.28098165
0.28059921
0.28020942
0.27977146
0.27925584
0.27864205
0.2779167
0.27707213
0.27610515
0.27501621
0.27380852
0.27248661
0.27105567
0.26949956
0.26783196
0.26606906
0.26422824
0.26232705
0.26038134
0.258408
0.25641341
0.25443149
0.25239851
0.25055762
0.24830954
0.073365835
0.16547645
0.24855305
0.3050352
0.33448677
0.34393669
0.34108093
0.33186246
0.32014789
0.30811591
0.29681451
0.28663901
0.27765011
0.26975642
0.26281175
0.25666387
0.2511759
0.24623294
0.24174175
0.23762769
0.23383098
0.2303032
0.22700431
0.22390027
0.22096122
0.2181601
0.21547154
0.21287107
0.21033453
0.20783779
0.20535683
0.2028689
0.20035439
0.19780344
0.19522353
0.19266765
0.19026016
0.18828971
0.18728883
0.18813581
0.1921811
0.20029539
0.21178966
0.22513496
0.23915306
0.25322021
0.26693782
0.27997991
0.29211398
0.30319315
0.31312424
0.32186053
0.32921661
0.33526064
0.34010424
0.34388498
0.34673232