/*--------------------------------*- C++ -*----------------------------------*\
| =========                 |                                                 |
| \\      /  F ield         | OpenFOAM: The Open Source CFD Toolbox           |
|  \\    /   O peration     | Version:  2412                                  |
|   \\  /    A nd           | Website:  www.openfoam.com                      |
|    \\/     M anipulation  |                                                 |
\*---------------------------------------------------------------------------*/
FoamFile
{
    version     2.0;
    format      ascii;
    arch        "LSB;label=32;scalar=64";
    class       volScalarField;
    location    "120";
    object      k;
}
// * * * * * * * * * * * * * * * * * * * * * * * * * * * * * * * * * * * * * //

dimensions      [0 2 -2 0 0 0 0];

internalField   nonuniform List<scalar> 
120000
(
0.013500256
0.022970604
0.030018566
0.034130822
0.035824987
0.035902635
0.035036207
0.03369626
0.03218126
0.030660349
0.02921756
0.027888376
0.02668275
0.025597451
0.024622813
0.023746682
0.022956634
0.022241056
0.021589586
0.02099322
0.020444236
0.019936045
0.019463002
0.019020225
0.018603446
0.018208866
0.017833057
0.017472876
0.017125419
0.016788029
0.016458325
0.016134476
0.015815307
0.015501722
0.015197585
0.014921284
0.014689085
0.014564141
0.014622069
0.015033225
0.016017655
0.017469159
0.019110442
0.02074319
0.022281092
0.02369729
0.024976497
0.026104491
0.027068335
0.027860789
0.028481251
0.028934751
0.029225564
0.029353671
0.029329169
0.029165801
0.02887488
0.028443801
0.027835349
0.026946243
0.025608628
0.023814303
0.021829918
0.019977452
0.018418268
0.017176927
0.016223517
0.015505318
0.014959544
0.014532793
0.014185835
0.013890869
0.013628873
0.013387453
0.013158849
0.012938718
0.012724983
0.012516973
0.012314774
0.012118808
0.011929612
0.01174772
0.011573595
0.011407595
0.011249951
0.011100776
0.010960106
0.010828086
0.010704282
0.010588425
0.010480228
0.01037936
0.010285429
0.010197971
0.010116562
0.010040236
0.0099696271
0.0098993446
0.0098432145
0.0097662754
0.015021079
0.025916493
0.034166115
0.039356456
0.042002365
0.042861892
0.042594202
0.04168834
0.040474794
0.0391549
0.037838255
0.036577925
0.035395545
0.034296393
0.033277903
0.032334329
0.031459077
0.030645713
0.029888291
0.029181406
0.028520142
0.027899994
0.027316802
0.026766687
0.026246006
0.025751315
0.025279329
0.024826904
0.024391016
0.023968785
0.023557509
0.023154885
0.02275908
0.022369944
0.021987535
0.021623786
0.021293981
0.021052031
0.020955353
0.021178829
0.022001912
0.023349752
0.024922937
0.026502869
0.027999926
0.029390163
0.030661175
0.031800662
0.032781768
0.033602798
0.034264208
0.034764112
0.03511054
0.035322615
0.035415032
0.035397693
0.035279756
0.03505729
0.034711198
0.0341664
0.033221823
0.031826536
0.03016407
0.028475461
0.026911083
0.025539742
0.024376917
0.023403454
0.022584264
0.02188332
0.021270997
0.020725101
0.020229691
0.019773162
0.019346275
0.01894435
0.018564639
0.018205367
0.017865397
0.017543951
0.017240453
0.016954431
0.016685448
0.016433057
0.016196777
0.015976092
0.015770406
0.01557896
0.015401369
0.015237054
0.015085367
0.014945641
0.014817191
0.014699305
0.014591427
0.014492677
0.014402866
0.014317229
0.014246802
0.014158731
0.014978113
0.025827346
0.034016071
0.039205485
0.041947032
0.042996219
0.042987005
0.042376467
0.041468816
0.040449402
0.039420236
0.038431469
0.037503743
0.036641879
0.035842884
0.035100565
0.034407992
0.033758655
0.033146893
0.03256797
0.032017991
0.031493752
0.030992574
0.030512152
0.030050421
0.029605458
0.029175393
0.028758357
0.02835245
0.02795575
0.027566323
0.027182415
0.026802418
0.026426027
0.026052947
0.025687067
0.025332199
0.025029925
0.02480022
0.024828977
0.025414809
0.026447241
0.027612709
0.028728538
0.029762315
0.030735494
0.031657953
0.032525381
0.033328475
0.034056109
0.034695481
0.035228753
0.035621461
0.035891621
0.036056499
0.036131809
0.036134299
0.036070965
0.035943423
0.035664681
0.035018276
0.033928976
0.032572135
0.031164943
0.029831158
0.028626913
0.027564901
0.026639697
0.025834157
0.025126346
0.024496482
0.023928646
0.023410702
0.02293369
0.022490982
0.022077925
0.021690308
0.021324701
0.02098009
0.020655781
0.020351232
0.020065919
0.019799278
0.0195507
0.019319524
0.01910506
0.018906592
0.018723396
0.018554758
0.018399963
0.018258284
0.018129001
0.018011385
0.017904712
0.017808131
0.017720576
0.017642098
0.017569437
0.017510387
0.017438945
0.014971425
0.025786632
0.033900522
0.038979478
0.041595776
0.042536341
0.04246129
0.041837371
0.0409648
0.040018735
0.039090111
0.038219632
0.037420853
0.036693675
0.036031808
0.03542684
0.034870293
0.034354506
0.033872904
0.033419987
0.032991212
0.032582836
0.03219176
0.031815384
0.031451487
0.031098115
0.030753493
0.030415942
0.03008382
0.029755492
0.029429285
0.029103608
0.02877675
0.028447888
0.028114817
0.027779769
0.027431394
0.02710583
0.026743399
0.026617993
0.026629859
0.026794051
0.026982119
0.027117905
0.027260997
0.027479197
0.027788874
0.028180085
0.028638209
0.029146263
0.0296846
0.030250631
0.030761874
0.03119492
0.031560689
0.031869695
0.032132988
0.032355033
0.032535923
0.032632778
0.032398153
0.031666237
0.030662713
0.029624976
0.028647237
0.027763737
0.026988365
0.026316122
0.025727683
0.025206175
0.024739898
0.024319347
0.023936722
0.023585846
0.023261919
0.02296128
0.022681049
0.022418968
0.02217265
0.021940618
0.021722578
0.02151836
0.021327784
0.021150598
0.020986468
0.020834992
0.020695721
0.020568177
0.020451862
0.020346266
0.020250867
0.020165143
0.020088551
0.020020572
0.019960576
0.019908077
0.019862259
0.019822313
0.019789279
0.019753321
0.014969224
0.025770443
0.033854684
0.038891202
0.041458773
0.042348716
0.04222647
0.04156334
0.040662057
0.039698682
0.03876396
0.037897673
0.037112141
0.036406031
0.035771981
0.035200691
0.034682954
0.034210492
0.033776177
0.033373985
0.03299885
0.032646497
0.032313284
0.031996068
0.03169209
0.031398888
0.031114209
0.030835945
0.030562073
0.030290612
0.030019556
0.029746952
0.029470542
0.029188764
0.028897222
0.028597895
0.028264959
0.02794397
0.027438058
0.027158661
0.025851219
0.024613871
0.023484745
0.02236395
0.02133379
0.020462629
0.01975139
0.019182606
0.018742132
0.018409107
0.018161684
0.018018364
0.018119075
0.018416725
0.018847093
0.019362046
0.019926953
0.020526691
0.021176544
0.021812668
0.02312448
0.0237648
0.023939378
0.023928181
0.023814289
0.023649914
0.023480649
0.023326855
0.023190905
0.023070012
0.022960841
0.022860165
0.022764717
0.022673208
0.02258485
0.022499154
0.022415591
0.022333726
0.022253662
0.022175684
0.022100257
0.022027913
0.021959176
0.021894507
0.021834273
0.021778742
0.021728097
0.021682441
0.021641809
0.021606177
0.021575469
0.021549575
0.021528324
0.02151157
0.021498964
0.021490569
0.021485224
0.02148461
0.021483691
0.021488106
0.014967571
0.025759762
0.033825846
0.038838352
0.04138014
0.042243259
0.04209478
0.041408419
0.040488371
0.039511142
0.038567311
0.037696102
0.03690907
0.036204136
0.035573338
0.035006965
0.034495584
0.034030839
0.033605628
0.033214009
0.032851019
0.032512467
0.032194764
0.031894775
0.0316097
0.031336985
0.031074246
0.030819208
0.030569647
0.030323354
0.030078059
0.029831499
0.029580978
0.029324377
0.029056001
0.028777178
0.028456172
0.028137243
0.027584007
0.027179821
0.025727226
0.024399434
0.023126754
0.021760999
0.020402639
0.019141178
0.017991455
0.016947272
0.016002071
0.015147514
0.014354466
0.013615213
0.012997161
0.012569345
0.012374633
0.012427811
0.012719524
0.013164441
0.013820746
0.014104438
0.015033183
0.015795829
0.016650701
0.017534255
0.01829783
0.018926848
0.019456737
0.019911675
0.020304758
0.020645764
0.020942206
0.021199602
0.021422354
0.021614492
0.021779753
0.021921559
0.022042985
0.022146779
0.022235434
0.022311211
0.022376155
0.022432098
0.022480671
0.022523296
0.022561202
0.022595437
0.022626886
0.02265629
0.022684262
0.022711303
0.022737814
0.022764135
0.022790495
0.022817121
0.022843959
0.02287156
0.022898585
0.022928741
0.022952356
0.022986702
0.01496658
0.025752845
0.033805889
0.038799787
0.04132117
0.042164443
0.041998768
0.041299465
0.040370935
0.039388941
0.038443116
0.037571824
0.036785895
0.036082687
0.035453844
0.034889417
0.03437985
0.033916757
0.033493079
0.03310296
0.03274155
0.032404783
0.032089193
0.031791752
0.031509753
0.031240708
0.030982274
0.030732192
0.030488222
0.030248115
0.030009531
0.029770105
0.029527008
0.029277937
0.029016975
0.028745254
0.028431273
0.028119017
0.027572619
0.02716536
0.02571397
0.024402007
0.023154439
0.021812018
0.020469995
0.019216724
0.018066508
0.017013375
0.016051613
0.015174342
0.014355672
0.013588741
0.012922311
0.012414256
0.012122122
0.01208575
0.012313529
0.012709691
0.0133472
0.01360532
0.014345945
0.014901408
0.015682852
0.016610084
0.017481828
0.018253306
0.018940345
0.01955391
0.020100493
0.020589873
0.021026808
0.021413589
0.021754804
0.022055462
0.022320359
0.022553863
0.022759877
0.022941879
0.023102944
0.023245783
0.023372795
0.023486101
0.023587571
0.023678842
0.023761342
0.02383631
0.02390482
0.023967797
0.024026034
0.024080209
0.024130899
0.024178889
0.024224546
0.024268043
0.024309384
0.024349286
0.024386417
0.024425236
0.024454595
0.024497579
0.014965948
0.025748093
0.03379149
0.038770814
0.041275722
0.042102872
0.041922998
0.041212633
0.040276569
0.039290256
0.038342766
0.037471854
0.036687755
0.035987283
0.035361639
0.034800529
0.034294156
0.033833979
0.033412849
0.033024883
0.032665241
0.032329897
0.032015438
0.031718901
0.031437638
0.031169221
0.030911354
0.030661812
0.030418379
0.030178816
0.029940787
0.029701925
0.029459467
0.029211166
0.028951828
0.028682786
0.028378681
0.028082442
0.027601723
0.027304681
0.025989417
0.024795443
0.023746149
0.022700414
0.021716369
0.020855233
0.020117126
0.019488005
0.01896031
0.018523511
0.01816579
0.017912044
0.017793618
0.017837836
0.018057735
0.018537126
0.019167469
0.019881128
0.0206311
0.021394273
0.022746555
0.023388775
0.023628976
0.023760464
0.023840408
0.023901399
0.023975303
0.024071391
0.024184608
0.024305493
0.024430017
0.024556733
0.024682669
0.024805161
0.024922309
0.025032895
0.02513625
0.02523221
0.025320802
0.025402227
0.025476834
0.025545068
0.025607416
0.025664369
0.025716399
0.025763954
0.025807451
0.025847271
0.025883755
0.025917206
0.025947919
0.025975853
0.026001211
0.026024432
0.026045647
0.026065479
0.026082958
0.026101716
0.026113295
0.026136366
0.014965512
0.025744706
0.033780884
0.03874875
0.041240121
0.042053608
0.041861345
0.041141039
0.040198059
0.039207757
0.038258756
0.037388264
0.036605957
0.035908146
0.035285619
0.034727774
0.034224594
0.033767396
0.03334895
0.032963335
0.032605703
0.032272042
0.031958963
0.031663531
0.031383127
0.031115347
0.030857914
0.030608615
0.030365239
0.030125549
0.029887219
0.029647906
0.029405024
0.029156466
0.028898581
0.028632273
0.02834613
0.028065335
0.027741014
0.027548474
0.027502924
0.027716528
0.028020179
0.028259624
0.028449741
0.028646377
0.02887045
0.029125199
0.02941339
0.029736206
0.030092191
0.030482302
0.030908188
0.031369809
0.031860809
0.032341705
0.032810313
0.033269974
0.03369967
0.034067439
0.034092886
0.033629775
0.032922197
0.032203163
0.031549566
0.030981393
0.030506842
0.030120092
0.029806697
0.029551935
0.029343721
0.029172378
0.029030147
0.028910964
0.028810114
0.02872395
0.02864963
0.028584819
0.028527744
0.028477033
0.028431592
0.02839052
0.028353062
0.028318568
0.028286473
0.028256297
0.028227632
0.028200131
0.028173498
0.028147484
0.028121845
0.028096406
0.028071034
0.02804568
0.028020243
0.027994911
0.027969215
0.027944742
0.027918618
0.027896072
0.014965199
0.025742232
0.033772933
0.038731714
0.041211914
0.042013839
0.041810903
0.041081826
0.040132517
0.039138313
0.038187502
0.037316866
0.036535652
0.035839775
0.035219687
0.034664525
0.034164081
0.033709536
0.033293571
0.032910215
0.032554595
0.032222694
0.031911129
0.031616976
0.03133763
0.031070697
0.030813909
0.030565053
0.030321919
0.030082267
0.029843789
0.029604185
0.029361082
0.029112655
0.028856781
0.028595185
0.028326927
0.028073699
0.027854817
0.027781937
0.028100339
0.028901079
0.029957781
0.031037005
0.032052819
0.032999447
0.033877955
0.0346866
0.035426602
0.036100376
0.036709006
0.037252749
0.03773217
0.038149354
0.038507979
0.038790585
0.039031535
0.03924848
0.039440732
0.039576033
0.039423641
0.038898472
0.038145011
0.037343789
0.036584641
0.035900089
0.035301579
0.03478597
0.034341235
0.033953967
0.033612807
0.033308785
0.033035001
0.032786301
0.032558858
0.03234977
0.032156609
0.031977422
0.031810641
0.031654971
0.031509307
0.031372653
0.031244071
0.031122667
0.03100759
0.030898062
0.030793377
0.030692905
0.030596083
0.030502415
0.030411471
0.030322894
0.030236396
0.030151753
0.030068824
0.029987425
0.029907823
0.029828993
0.029755462
0.02967421
0.014964969
0.025740384
0.033766874
0.038718421
0.041189411
0.041981574
0.041769446
0.041032619
0.040077513
0.039079538
0.038126769
0.037255662
0.036475114
0.035780702
0.035162585
0.034609662
0.034111545
0.033659286
0.033245482
0.03286411
0.032510273
0.032179945
0.031869745
0.031576758
0.03129839
0.031032254
0.030776088
0.03052768
0.030284817
0.030045259
0.029806717
0.029566941
0.029323763
0.029075698
0.028821922
0.028565522
0.028312392
0.028086652
0.027929961
0.027937511
0.028326514
0.029196654
0.030409338
0.031747176
0.033080449
0.034356371
0.035547608
0.036636031
0.037613198
0.038476952
0.039227735
0.039867549
0.040400391
0.040832823
0.041174546
0.04143674
0.041629995
0.04176275
0.041837007
0.041824057
0.041606515
0.041097627
0.040381011
0.039605205
0.03886331
0.038196334
0.037621133
0.037137447
0.036732821
0.036390612
0.036095255
0.035833971
0.035596985
0.035377348
0.035170368
0.034972761
0.034780625
0.034593119
0.034410038
0.034231434
0.034057382
0.033887823
0.033722496
0.033561085
0.033403256
0.033248692
0.033097094
0.032948184
0.03280171
0.032657458
0.032515255
0.032374982
0.032236581
0.032100007
0.031965382
0.031832417
0.031702321
0.031571575
0.031452453
0.031313066
0.014964795
0.025738977
0.033762199
0.03870797
0.041171381
0.041955322
0.041735314
0.040991702
0.040031382
0.039029884
0.038075143
0.037203359
0.036423142
0.035729785
0.035113195
0.034562068
0.034065858
0.033615504
0.033203524
0.032823845
0.032471544
0.032142582
0.031833579
0.031541621
0.031264121
0.030998696
0.030743087
0.03049508
0.030252461
0.030012985
0.029774379
0.029534434
0.029291144
0.029043316
0.028791074
0.028538739
0.028296382
0.028090876
0.027972069
0.028030019
0.028423656
0.029246607
0.030398826
0.031703057
0.03303994
0.034352321
0.035605774
0.036774515
0.037842764
0.038792112
0.039617402
0.040320941
0.040907117
0.041383529
0.041760903
0.042051545
0.042267413
0.04241348
0.042479941
0.042432817
0.042190455
0.041693964
0.04100381
0.040245271
0.03951117
0.038848747
0.038281485
0.037816208
0.037445524
0.037154339
0.036925703
0.036743574
0.036593971
0.036465534
0.036349582
0.036239803
0.036131653
0.036022082
0.035909207
0.035791977
0.035669942
0.035542307
0.035407928
0.035267454
0.035121572
0.034971007
0.034816282
0.034657896
0.034496345
0.034332139
0.034165812
0.033997908
0.033828995
0.033659578
0.03349035
0.033321254
0.033154546
0.032984817
0.032831116
0.032645613
0.014964662
0.025737893
0.033758562
0.038699717
0.041156915
0.041933975
0.041707263
0.040957778
0.03999284
0.038988119
0.038031467
0.037158889
0.036378762
0.035686148
0.035070742
0.034521064
0.034026427
0.033577667
0.033167231
0.032788996
0.032438012
0.032110225
0.031802251
0.031511177
0.031234419
0.030969598
0.030714453
0.030466772
0.030224333
0.029984888
0.029746162
0.02950597
0.029262387
0.029014393
0.028762626
0.028512134
0.028275071
0.028080013
0.027980001
0.028062378
0.028458944
0.029247724
0.030348537
0.031603515
0.032897191
0.034172477
0.035396065
0.036542737
0.037596281
0.038547636
0.039392292
0.040127536
0.040741951
0.041244058
0.041644578
0.041955772
0.042188835
0.042347124
0.042419235
0.04237017
0.042131333
0.041654439
0.040989383
0.040250119
0.039528317
0.038873095
0.038310155
0.037849881
0.037488825
0.037215062
0.037013741
0.036869792
0.03676907
0.036699068
0.036649244
0.036611007
0.036577521
0.03654347
0.03650484
0.03645871
0.036403065
0.03633659
0.036258289
0.036167828
0.0360653
0.035951278
0.035824049
0.035684697
0.035534557
0.035375077
0.035207767
0.035034055
0.034855309
0.034672747
0.034487742
0.034300659
0.034114651
0.033923266
0.03375013
0.03353713
0.014964558
0.025737051
0.03375572
0.038693198
0.041145336
0.041916691
0.041684342
0.040929842
0.039960883
0.038953283
0.03799485
0.037121443
0.036341252
0.03564915
0.035034654
0.034486131
0.033992776
0.033545331
0.033136179
0.032759154
0.032409277
0.032082482
0.031775377
0.03148505
0.031208916
0.030944599
0.030689837
0.030442413
0.030200099
0.029960633
0.029721729
0.029481185
0.029237071
0.028988373
0.028735763
0.028484405
0.028246621
0.028051257
0.027951761
0.028035969
0.028436427
0.029231329
0.03033922
0.031600687
0.032899189
0.034176962
0.035400381
0.036544254
0.037592633
0.038537253
0.039374248
0.040103254
0.040711986
0.041208755
0.041604707
0.041912468
0.042143504
0.042301313
0.042374457
0.042327831
0.042091694
0.041615933
0.040949875
0.040208414
0.039484275
0.038827177
0.038263416
0.037804043
0.037446218
0.037178523
0.036986503
0.036855336
0.036770943
0.03672068
0.036693668
0.036680798
0.036674591
0.036669019
0.036659331
0.036641885
0.036614003
0.036573829
0.036520191
0.036452488
0.036370592
0.036274812
0.036165568
0.036043715
0.035907518
0.03575826
0.03559773
0.035427861
0.035250592
0.03506764
0.034880801
0.034690752
0.034501013
0.034305005
0.034127575
0.033908039
0.014964478
0.025736396
0.033753505
0.038688074
0.04113614
0.041902831
0.041665814
0.040907111
0.039934727
0.038924623
0.037964591
0.037090379
0.036310034
0.035618271
0.035004464
0.034456851
0.033964527
0.033518154
0.033110057
0.032734033
0.032385077
0.032059108
0.031752728
0.031463022
0.031187406
0.030923503
0.03066905
0.030421823
0.030179584
0.029940055
0.029700918
0.029459925
0.02921504
0.028965091
0.028710315
0.028455318
0.028210727
0.02800431
0.027887279
0.027951201
0.028357013
0.029198159
0.030370654
0.031693223
0.033044094
0.034365128
0.035621924
0.03678932
0.037852334
0.038796808
0.039614877
0.040309811
0.040885918
0.041351063
0.041718449
0.042002505
0.042216669
0.042366197
0.042441928
0.042408457
0.042180248
0.041693173
0.04100608
0.040246721
0.039510696
0.038847564
0.038283243
0.037826931
0.037473103
0.037207896
0.037014944
0.036878135
0.036782799
0.036716358
0.036668523
0.036631138
0.036597892
0.036563997
0.036525901
0.03648103
0.036427582
0.036364371
0.036290702
0.036206264
0.036111062
0.036005326
0.035889413
0.035763636
0.035626608
0.035479484
0.035323638
0.035160553
0.03499174
0.034818567
0.034642508
0.034464107
0.034286393
0.034103611
0.033937692
0.033734486
0.014964415
0.02573589
0.033751796
0.038684099
0.041128949
0.041891906
0.041651116
0.040888977
0.039913759
0.038901547
0.037940135
0.037065192
0.03628465
0.035593104
0.034979809
0.034432901
0.033941389
0.033495872
0.033088624
0.032713408
0.032365198
0.0320399
0.031734109
0.031444908
0.031169711
0.030906139
0.030651928
0.030404846
0.030162645
0.029923024
0.029683622
0.029442113
0.02919628
0.028944652
0.028686596
0.028425639
0.028168598
0.027941122
0.027787235
0.027804732
0.028212603
0.029109098
0.030348077
0.03170856
0.033061197
0.034355399
0.035565941
0.036675738
0.037676224
0.038564447
0.039339381
0.040001539
0.040552761
0.040990235
0.04133326
0.041600526
0.041810517
0.041973619
0.042086788
0.042116452
0.041938638
0.041458525
0.04075844
0.03999177
0.039257123
0.038600719
0.038044598
0.037592557
0.037234121
0.036952556
0.036730732
0.036553367
0.036407751
0.036283895
0.036174294
0.036073464
0.035977472
0.035883534
0.035789669
0.035694446
0.035596854
0.035496193
0.035391999
0.035283963
0.035171951
0.035055217
0.034933068
0.034805864
0.034673946
0.03453779
0.034397951
0.034255053
0.034109779
0.033962787
0.033814875
0.03366629
0.033519023
0.033369065
0.033232068
0.03306833
0.014964368
0.025735507
0.033750506
0.038681094
0.041123481
0.04188355
0.041639815
0.040874975
0.039897504
0.038883596
0.037921051
0.037045485
0.036264744
0.035573329
0.034960404
0.034414026
0.033923135
0.033478277
0.033071688
0.032697102
0.032349476
0.032024704
0.031719375
0.03143057
0.031155699
0.030892384
0.030638356
0.030391379
0.03014919
0.029909465
0.029669793
0.029427757
0.029180903
0.028927409
0.02866538
0.028397115
0.028122911
0.02786674
0.027650771
0.027591716
0.027931771
0.028754635
0.029829784
0.030928226
0.031970988
0.032957924
0.033892832
0.034773667
0.035599041
0.036367161
0.037074222
0.037714773
0.038265274
0.038728747
0.039122988
0.039467866
0.039781925
0.040076315
0.040348129
0.04056221
0.040478709
0.040007501
0.039298001
0.038537793
0.037823143
0.037191168
0.036655692
0.036213723
0.035850603
0.035549415
0.035296763
0.035081662
0.034895384
0.03473121
0.03458407
0.034450162
0.034326616
0.034211254
0.034102049
0.033997209
0.033895716
0.033796796
0.033699813
0.033604211
0.033509498
0.033415186
0.033320804
0.033225999
0.033130531
0.033034267
0.032937169
0.032839293
0.032740778
0.032641825
0.032542722
0.032443655
0.032345439
0.032246695
0.032154581
0.032049623
0.014964334
0.025735227
0.033749577
0.038678931
0.041119531
0.041877491
0.041631593
0.040864755
0.039885607
0.038870422
0.037907013
0.037030959
0.036250044
0.035558704
0.034946035
0.034400034
0.033909591
0.033465213
0.033059106
0.032684983
0.032337787
0.032013404
0.031708416
0.031419902
0.031145271
0.030882144
0.030628248
0.030381342
0.03013915
0.029899328
0.029659412
0.029416904
0.029169093
0.028913843
0.028647741
0.028372366
0.028077753
0.027792405
0.027469517
0.027293263
0.02726323
0.027491895
0.027815623
0.028087116
0.028326454
0.028593466
0.028911731
0.029285524
0.029717651
0.030207296
0.030753006
0.031355601
0.032015211
0.032658758
0.033289306
0.03390309
0.034501281
0.035079734
0.035623078
0.036088907
0.036206379
0.035832923
0.035205715
0.0345565
0.033966667
0.033459469
0.033044142
0.032715031
0.032457291
0.032255489
0.032096865
0.031971273
0.031870833
0.031789588
0.031723072
0.031667917
0.031621551
0.031581981
0.031547605
0.031517093
0.031489366
0.031463548
0.031438922
0.031414887
0.031390934
0.031366629
0.031341605
0.031315558
0.031288257
0.031259535
0.031229291
0.031197496
0.031164178
0.031129469
0.031093456
0.031056586
0.031018596
0.030981284
0.030942471
0.030905439
0.01496431
0.025735038
0.033748964
0.038677518
0.041116954
0.041873537
0.041626223
0.040858072
0.039877815
0.03886178
0.037897791
0.037021402
0.03624036
0.035549057
0.034936547
0.034390786
0.033900632
0.033456567
0.033050775
0.032676957
0.032330043
0.032005915
0.031701152
0.031412829
0.031138357
0.030875353
0.030621542
0.030374679
0.03013248
0.029892582
0.029652482
0.029409619
0.029161056
0.028904474
0.028634885
0.028354358
0.028039196
0.027736202
0.027257573
0.026979102
0.025710637
0.024585442
0.023609521
0.022629156
0.021697334
0.020878008
0.020177757
0.019589778
0.019115366
0.018739003
0.018475065
0.018363013
0.018482351
0.018949503
0.019628814
0.020440604
0.021318961
0.022225286
0.023153212
0.02403541
0.025526825
0.026343136
0.026726773
0.026955588
0.027098316
0.027197434
0.027292904
0.027401599
0.027524658
0.027658797
0.027799984
0.027944203
0.028088041
0.028228963
0.02836524
0.028495764
0.028619887
0.028737284
0.028847854
0.028951629
0.029048723
0.029139302
0.029223559
0.029301701
0.029373937
0.029440478
0.029501534
0.029557314
0.02960803
0.029653898
0.029695135
0.02973198
0.029764668
0.029793539
0.029818733
0.029841146
0.02985967
0.029879159
0.029889048
0.029913223
0.014964296
0.025734932
0.033748644
0.038676805
0.041115669
0.041871576
0.041623569
0.040854775
0.039873971
0.038857513
0.037893232
0.037016671
0.036235561
0.035544271
0.034931834
0.034386189
0.033896176
0.033452263
0.033046627
0.032672958
0.032326184
0.032002183
0.031697531
0.031409304
0.03113491
0.030871966
0.030618197
0.030371355
0.03012915
0.029889211
0.029649013
0.029405958
0.029156988
0.02889966
0.028628178
0.028344422
0.028018558
0.027699086
0.027156482
0.026768702
0.025378216
0.024165737
0.023029883
0.021785575
0.020513658
0.01930102
0.018166499
0.017110973
0.0161376
0.015248953
0.014406813
0.013653843
0.013056774
0.012704384
0.012683983
0.012990698
0.013580931
0.014325862
0.015257046
0.015762146
0.016797011
0.017637989
0.018608396
0.019651419
0.020600186
0.021426698
0.022158399
0.022814516
0.023405534
0.02394007
0.024425369
0.024867005
0.025269451
0.025636571
0.025971811
0.026278263
0.026558716
0.026815684
0.027051427
0.027267967
0.027467104
0.027650432
0.027819361
0.027975136
0.028118861
0.028251512
0.028373962
0.02848699
0.0285913
0.028687529
0.028776253
0.028858019
0.02893331
0.029002705
0.029066456
0.029125827
0.029179224
0.029233473
0.029272809
0.029333883
0.014964296
0.025734932
0.033748644
0.038676805
0.041115669
0.041871576
0.041623569
0.040854775
0.039873971
0.038857513
0.037893232
0.037016671
0.036235561
0.035544271
0.034931834
0.034386189
0.033896176
0.033452263
0.033046627
0.032672958
0.032326184
0.032002183
0.031697531
0.031409304
0.03113491
0.030871966
0.030618197
0.030371355
0.03012915
0.029889211
0.029649013
0.029405958
0.029156988
0.02889966
0.028628178
0.028344422
0.028018558
0.027699086
0.027156482
0.026768703
0.025378216
0.024165737
0.023029883
0.021785575
0.020513657
0.019301019
0.018166496
0.017110969
0.016137594
0.015248945
0.0144068
0.013653826
0.013056748
0.012704342
0.012683926
0.012990624
0.013580842
0.01432576
0.015256934
0.015762025
0.016796873
0.017637828
0.018608217
0.019651227
0.020599984
0.021426489
0.022158185
0.022814299
0.023405313
0.023939846
0.02442514
0.024866771
0.02526921
0.025636323
0.025971554
0.026277996
0.026558437
0.02681539
0.027051116
0.027267638
0.027466753
0.027650057
0.027818957
0.027974701
0.02811839
0.028251002
0.028373407
0.028486387
0.028590644
0.028686816
0.028775479
0.028857181
0.028932405
0.02900173
0.029065409
0.029124708
0.029178031
0.029232205
0.029271473
0.029332463
0.01496431
0.025735038
0.033748964
0.038677518
0.041116954
0.041873537
0.041626223
0.040858072
0.039877815
0.03886178
0.037897791
0.037021402
0.03624036
0.035549057
0.034936547
0.034390786
0.033900632
0.033456567
0.033050775
0.032676957
0.032330043
0.032005915
0.031701152
0.03141283
0.031138357
0.030875353
0.030621542
0.030374679
0.03013248
0.029892582
0.029652482
0.029409619
0.029161057
0.028904475
0.028634886
0.028354359
0.028039197
0.027736202
0.027257573
0.026979103
0.025710638
0.024585443
0.023609521
0.022629154
0.02169733
0.020878
0.020177744
0.019589759
0.019115339
0.018738966
0.018475014
0.018362946
0.018482239
0.018949359
0.01962864
0.020440407
0.021318745
0.022225054
0.023152965
0.024035151
0.025526555
0.026342845
0.02672646
0.026955255
0.027097965
0.027197067
0.027292521
0.027401201
0.027524244
0.027658365
0.027799533
0.027943731
0.028087544
0.028228439
0.028364686
0.028495177
0.028619261
0.028736616
0.028847138
0.028950858
0.029047892
0.029138402
0.029222582
0.029300636
0.029372774
0.029439206
0.029500141
0.029555789
0.029606362
0.029652077
0.02969315
0.029729822
0.029762329
0.029791013
0.029816014
0.029838231
0.029856557
0.029875845
0.029885552
0.029909503
0.014964334
0.025735227
0.033749577
0.038678931
0.041119531
0.041877491
0.041631593
0.040864755
0.039885607
0.038870422
0.037907013
0.037030959
0.036250044
0.035558704
0.034946035
0.034400034
0.033909591
0.033465213
0.033059106
0.032684984
0.032337788
0.032013404
0.031708416
0.031419902
0.031145272
0.030882145
0.030628249
0.030381342
0.030139151
0.029899328
0.029659412
0.029416904
0.029169094
0.028913844
0.028647742
0.028372367
0.028077754
0.027792406
0.027469518
0.027293265
0.027263231
0.027491894
0.02781562
0.028087108
0.028326441
0.028593446
0.028911703
0.029285485
0.029717599
0.030207229
0.030752921
0.031355494
0.032015088
0.032658619
0.033289154
0.033902925
0.034501107
0.035079552
0.035622889
0.036088712
0.036206176
0.035832712
0.035205496
0.034556274
0.033966434
0.033459227
0.033043889
0.032714764
0.032457005
0.032255179
0.032096525
0.0319709
0.031870423
0.031789136
0.031722574
0.031667368
0.031620944
0.031581309
0.031546864
0.031516275
0.031488464
0.031462552
0.031437819
0.031413662
0.031389571
0.031365114
0.031339922
0.031313694
0.031286196
0.031257264
0.031226798
0.03119477
0.031161208
0.031126246
0.031089974
0.031052841
0.031014585
0.030977006
0.030937948
0.030900621
0.014964368
0.025735507
0.033750506
0.038681094
0.041123481
0.04188355
0.041639815
0.040874975
0.039897504
0.038883596
0.037921051
0.037045485
0.036264744
0.035573329
0.034960404
0.034414026
0.033923135
0.033478277
0.033071688
0.032697102
0.032349476
0.032024704
0.031719376
0.03143057
0.031155699
0.030892385
0.030638357
0.03039138
0.030149191
0.029909466
0.029669793
0.029427758
0.029180904
0.02892741
0.028665381
0.028397116
0.028122913
0.027866742
0.027650773
0.027591718
0.027931773
0.028754637
0.029829785
0.030928224
0.031970982
0.032957914
0.033892816
0.034773644
0.035599011
0.036367122
0.037074175
0.037714716
0.038265212
0.038728679
0.039122914
0.039467786
0.039781839
0.040076225
0.040348038
0.040562117
0.040478624
0.040007425
0.039297936
0.03853774
0.037823102
0.037191138
0.036655671
0.036213708
0.035850577
0.035549371
0.035296695
0.035081565
0.034895252
0.034731036
0.034583849
0.034449885
0.034326274
0.034210836
0.034101577
0.033996675
0.033895106
0.033796093
0.033698999
0.033603268
0.033508407
0.033413935
0.033319381
0.033224392
0.033128726
0.033032253
0.032934934
0.032836826
0.03273807
0.032638869
0.032539514
0.032440191
0.03234172
0.03224272
0.032150373
0.032045139
0.014964415
0.02573589
0.033751796
0.038684099
0.041128949
0.041891906
0.041651116
0.040888977
0.039913759
0.038901547
0.037940135
0.037065192
0.03628465
0.035593104
0.034979809
0.034432901
0.033941389
0.033495872
0.033088624
0.032713408
0.032365198
0.0320399
0.031734109
0.031444908
0.031169711
0.03090614
0.030651928
0.030404847
0.030162646
0.029923024
0.029683623
0.029442114
0.029196281
0.028944653
0.028686598
0.02842564
0.0281686
0.027941124
0.027787237
0.027804735
0.028212606
0.029109101
0.03034808
0.031708563