/*--------------------------------*- C++ -*----------------------------------*\
| =========                 |                                                 |
| \\      /  F ield         | OpenFOAM: The Open Source CFD Toolbox           |
|  \\    /   O peration     | Version:  2412                                  |
|   \\  /    A nd           | Website:  www.openfoam.com                      |
|    \\/     M anipulation  |                                                 |
\*---------------------------------------------------------------------------*/
FoamFile
{
    version     2.0;
    format      ascii;
    arch        "LSB;label=32;scalar=64";
    class       volScalarField;
    location    "120";
    object      nut;
}
// * * * * * * * * * * * * * * * * * * * * * * * * * * * * * * * * * * * * * //

dimensions      [0 2 -1 0 0 0 0];

internalField   nonuniform List<scalar> 
120000
(
0.00026092488
0.00034035387
0.00038908049
0.00041487557
0.00042504754
0.00042550792
0.00042034223
0.00041222596
0.00040285245
0.00039321768
0.00038385434
0.00037502144
0.00036682572
0.00035928811
0.00035238168
0.00034605566
0.00034025036
0.00033490543
0.00032996407
0.00032537487
0.00032109233
0.00031707645
0.00031329207
0.00030970792
0.0003062959
0.00030303022
0.00029988683
0.00029684292
0.00029387666
0.0002909674
0.00028809605
0.00028524755
0.0002824121
0.00027959826
0.00027684188
0.00027431376
0.00027217101
0.00027101101
0.00027154945
0.00027534081
0.00028421302
0.00029681135
0.00031044157
0.00032343147
0.00033520674
0.0003456956
0.00035490349
0.00036282911
0.00036946668
0.00037483593
0.00037898676
0.00038199211
0.00038390695
0.00038474743
0.00038458683
0.00038351423
0.00038159672
0.00037873755
0.00037466481
0.00036863256
0.00035936665
0.00034654816
0.00033179572
0.0003174058
0.00030476796
0.00029431864
0.00028603402
0.00027963125
0.00027466589
0.00027072
0.00026746905
0.0002646739
0.00026216624
0.00025983414
0.00025760642
0.00025544293
0.00025332468
0.00025124608
0.00024920898
0.00024721874
0.00024528202
0.00024340563
0.00024159582
0.00023985784
0.00023819572
0.00023661225
0.0002351096
0.00023369054
0.000232352
0.00023109246
0.00022991005
0.00022880226
0.00022776582
0.0002267964
0.00022589023
0.00022503678
0.00022424465
0.00022345153
0.00022281833
0.00022194353
0.00027522955
0.00036152023
0.00041509001
0.00044550489
0.00046023682
0.00046492206
0.00046346797
0.00045851314
0.0004517902
0.00044436265
0.00043682756
0.00042949095
0.00042249229
0.00041588064
0.00040965897
0.00040380939
0.00039830657
0.00039312381
0.0003882353
0.00038361678
0.0003792454
0.00037509955
0.0003711585
0.00036740224
0.00036381123
0.00036036632
0.00035704854
0.00035383906
0.00035071911
0.00034767023
0.00034467451
0.00034171638
0.00033878318
0.00033587443
0.00033299121
0.00033022531
0.00032769735
0.00032583032
0.0003250813
0.0003268101
0.00033310006
0.00034315129
0.00035452276
0.00036558717
0.00037577073
0.0003849865
0.00039322299
0.00040046317
0.00040659375
0.0004116539
0.00041568548
0.00041870687
0.00042078793
0.00042205683
0.00042260861
0.00042250515
0.00042180072
0.00042046873
0.00041838812
0.00041509181
0.00040931372
0.00040062614
0.00039002245
0.00037894839
0.00036839213
0.00035888316
0.00035061807
0.00034354607
0.00033748004
0.00033220171
0.00032752114
0.00032329123
0.00031940408
0.00031577965
0.00031235253
0.00030909112
0.00030597807
0.00030300319
0.00030016104
0.00029744882
0.00029486522
0.00029240957
0.0002900813
0.00028787958
0.00028580308
0.00028384993
0.00028201723
0.0002803007
0.00027869888
0.00027720842
0.00027582511
0.00027454436
0.00027336121
0.0002722702
0.00027126747
0.00027034501
0.00026950261
0.00026869461
0.00026802889
0.00026719122
0.00027483563
0.00036089792
0.00041417755
0.00044464959
0.00045993356
0.00046565001
0.00046560011
0.00046228187
0.00045730432
0.00045164847
0.00044586573
0.00044023846
0.00043489237
0.00042986625
0.0004251537
0.00042072812
0.00041655673
0.00041260744
0.00040885179
0.00040526568
0.00040182923
0.00039852603
0.00039534233
0.00039226621
0.00038928688
0.00038639401
0.00038357725
0.00038082594
0.00037812883
0.00037547417
0.0003728498
0.00037024441
0.00036764738
0.00036505678
0.00036247071
0.0003599165
0.00035742172
0.00035528287
0.00035364886
0.00035385384
0.00035800404
0.00036520329
0.00037316337
0.00038062846
0.00038741627
0.00039369926
0.0003995636
0.00040500063
0.00040997014
0.00041442125
0.00041829335
0.00042149569
0.00042383847
0.00042544267
0.00042641875
0.00042686384
0.00042687855
0.00042650429
0.0004257496
0.00042409554
0.00042023472
0.00041364706
0.00040529169
0.00039644029
0.00038786422
0.00037995482
0.00037284041
0.00036652994
0.00036094582
0.0003559669
0.00035147699
0.00034737952
0.00034359948
0.00034008101
0.00033678272
0.00033367596
0.00033073401
0.00032793496
0.00032527462
0.00032275102
0.00032036313
0.00031810981
0.00031598945
0.00031399981
0.00031213804
0.00031040077
0.00030878422
0.0003072843
0.00030589677
0.00030461714
0.00030344064
0.00030236236
0.00030137712
0.0003004796
0.00029966326
0.00029891972
0.00029825038
0.00029762659
0.0002971181
0.00029649839
0.00027477426
0.00036061335
0.0004134735
0.00044336611
0.00045800382
0.00046315307
0.0004627443
0.00045933197
0.00045451676
0.00044923767
0.00044399486
0.00043902347
0.00043441152
0.00043016997
0.00042627269
0.00042267902
0.00041934579
0.00041623284
0.00041330504
0.00041053257
0.00040789053
0.00040535817
0.00040291816
0.00040055584
0.00039825852
0.0003960149
0.00039381451
0.00039164729
0.00038950316
0.00038737185
0.00038524264
0.00038310507
0.0003809477
0.0003787647
0.00037654087
0.0003742905
0.00037193618
0.00036972247
0.00036724238
0.00036638033
0.00036646198
0.00036759
0.00036887781
0.00036980482
0.0003707792
0.00037226013
0.00037435184
0.00037697769
0.0003800296
0.00038338573
0.00038691013
0.00039058154
0.00039386817
0.0003966308
0.00039894933
0.0004008976
0.00040255021
0.00040393867
0.00040506627
0.00040566874
0.00040420777
0.00039961591
0.00039323289
0.00038652142
0.00038008957
0.00037418257
0.00036892059
0.00036429699
0.00036020106
0.00035653169
0.00035321867
0.00035020365
0.00034743782
0.00034488199
0.00034250555
0.00034028511
0.00033820229
0.00033624271
0.00033439052
0.00033263631
0.00033097939
0.00032941991
0.00032795784
0.00032659252
0.00032532251
0.00032414575
0.0003230597
0.00032206144
0.00032114779
0.00032031534
0.0003195605
0.00031887954
0.00031826852
0.00031772355
0.00031723992
0.00031681372
0.0003164392
0.00031610858
0.0003158341
0.00031553049
0.00027475407
0.00036050013
0.00041319386
0.00044286379
0.00045724894
0.00046213047
0.00046146298
0.00045782521
0.00045283413
0.00044743765
0.00044213872
0.00043717041
0.00043261591
0.00042848059
0.00042473298
0.00042132776
0.00041821781
0.0004153595
0.0004127145
0.00041024993
0.00040793774
0.00040575397
0.00040367796
0.00040169163
0.00039977896
0.00039792536
0.00039611735
0.00039434208
0.00039258698
0.00039083956
0.00038908691
0.00038731625
0.00038551257
0.00038366514
0.00038174428
0.00037976201
0.00037754495
0.00037539505
0.00037198136
0.00037008261
0.00036106468
0.0003523177
0.0003441418
0.00033582943
0.00032800352
0.00032123674
0.00031560461
0.00031102715
0.00030743549
0.00030469187
0.00030263738
0.0003014409
0.00030228215
0.00030475489
0.00030829514
0.00031247847
0.00031700414
0.00032173918
0.00032679246
0.00033166442
0.00034149196
0.00034618765
0.00034745689
0.00034737562
0.00034654793
0.00034534985
0.00034411178
0.00034298299
0.00034198206
0.00034108953
0.00034028152
0.00033953467
0.00033882507
0.00033814336
0.0003374838
0.00033684288
0.00033621676
0.00033560221
0.00033500008
0.00033441255
0.00033384316
0.00033329602
0.00033277518
0.00033228417
0.00033182588
0.0003314024
0.00033101516
0.00033066499
0.00033035215
0.00033007643
0.00032983723
0.00032963362
0.00032946425
0.0003293279
0.00032922189
0.00032914646
0.00032909321
0.00032907371
0.00032905333
0.00032907016
0.00027473889
0.00036042541
0.00041301785
0.00044256278
0.00045681511
0.00046155472
0.00046074285
0.00045697118
0.00045186597
0.00044637954
0.00044101582
0.00043600624
0.00043143069
0.00042729084
0.00042355206
0.00042016678
0.0004170866
0.00041426745
0.00041167121
0.0004092655
0.00040702296
0.0004049202
0.00040293697
0.0004010553
0.00039925896
0.00039753291
0.00039586289
0.00039423504
0.00039263562
0.00039105074
0.00038946586
0.00038786628
0.00038623422
0.00038455537
0.00038279161
0.00038095054
0.00037881985
0.00037669101
0.00037296937
0.00037022674
0.00036019773
0.00035077964
0.00034150875
0.00033127138
0.00032076552
0.00031069112
0.00030121574
0.00029234415
0.00028407474
0.00027638546
0.00026905312
0.00026203345
0.00025601698
0.00025176818
0.0002498105
0.00025034668
0.00025326778
0.00025765923
0.00026400384
0.00026669963
0.00027534042
0.00028223815
0.0002897749
0.00029736384
0.00030376959
0.00030894676
0.00031324165
0.00031688261
0.00031999517
0.00032267104
0.00032497932
0.00032697034
0.00032868363
0.0003301543
0.00033141402
0.00033249112
0.00033341064
0.00033419458
0.00033486266
0.00033543254
0.00033592002
0.00033633917
0.00033670238
0.00033702043
0.00033730254
0.00033755655
0.00033778902
0.00033800541
0.00033821021
0.00033840704
0.00033859875
0.00033878774
0.00033897561
0.00033916392
0.00033935223
0.00033954442
0.00033973101
0.0003399383
0.00034009878
0.00034033481
0.0002747298
0.00036037702
0.00041289599
0.00044234299
0.00045648949
0.00046112394
0.00046021711
0.00045636959
0.00045121018
0.00044568871
0.00044030516
0.00043528693
0.00043071019
0.00042657355
0.00042284009
0.00041946076
0.00041638634
0.0004135725
0.00041098126
0.00040858075
0.00040634424
0.00040424909
0.00040227578
0.00040040705
0.00039862725
0.00039692177
0.00039527663
0.0003936781
0.00039211236
0.00039056529
0.00038902193
0.00038746696
0.00038588172
0.00038425075
0.00038253445
0.00038073917
0.00037865408
0.00037656899
0.00037289237
0.00037012824
0.00036010492
0.00035079813
0.0003417131
0.00033165949
0.00032129456
0.00031130363
0.00030184335
0.00029291375
0.00028451414
0.00027663011
0.00026906444
0.0002617786
0.00025527874
0.00025021014
0.00024724863
0.00024687743
0.00024919301
0.00025316993
0.00025944166
0.00026193832
0.00026897335
0.00027413113
0.00028122715
0.00028942141
0.00029691912
0.00030339997
0.00030905709
0.00031402309
0.00031838174
0.00032223419
0.00032563528
0.00032861661
0.00033122443
0.00033350537
0.00033550214
0.00033725244
0.00033878913
0.00034014088
0.00034133257
0.0003423858
0.00034331944
0.00034414995
0.00034489168
0.00034555709
0.00034615693
0.00034670047
0.00034719565
0.0003476493
0.00034806719
0.00034845422
0.00034881455
0.00034915357
0.00034947418
0.00034977752
0.00035006366
0.00035033758
0.00035059027
0.0003508527
0.00035104834
0.00035133781
0.000274724
0.00036034377
0.00041280804
0.00044217781
0.00045623839
0.00046078714
0.00045980178
0.00045588958
0.00045068252
0.00044513005
0.00043973011
0.00043470744
0.00043013527
0.00042600924
0.00042228988
0.00041892609
0.00041586708
0.00041306749
0.00041048873
0.00040809862
0.00040587044
0.00040378171
0.00040181321
0.00039994802
0.00039817083
0.00039646738
0.00039482396
0.00039322706
0.00039166298
0.00039011764
0.0003885761
0.00038702301
0.00038544013
0.00038381234
0.00038210479
0.00038032524
0.0003783037
0.00037632401
0.00037308912
0.00037107615
0.0003620285
0.0003536148
0.00034605178
0.00033834626
0.0003309315
0.0003243038
0.00031851324
0.00031349326
0.00030921976
0.00030563719
0.00030267161
0.00030055028
0.00029955509
0.00029992707
0.00030177013
0.00030574956
0.00031090453
0.00031663957
0.00032255656
0.0003284683
0.00033869011
0.00034343809
0.00034519715
0.0003461563
0.00034673816
0.00034718142
0.00034771778
0.00034841389
0.0003492323
0.00035010404
0.00035099975
0.00035190888
0.00035281007
0.00035368441
0.00035451856
0.00035530416
0.00035603678
0.00035671556
0.00035734099
0.00035791472
0.00035843943
0.00035891842
0.00035935521
0.00035975336
0.0003601162
0.00036044691
0.00036074838
0.00036102326
0.00036127385
0.00036150221
0.00036171033
0.00036189806
0.0003620665
0.00036221869
0.00036235556
0.0003624813
0.00036258969
0.00036270473
0.00036277132
0.00036291175
0.00027472
0.00036032007
0.00041274326
0.00044205197
0.00045604159
0.00046051748
0.00045946356
0.00045549343
0.00045024306
0.00044466248
0.00043924812
0.00043422231
0.00042965549
0.00042554058
0.00042183573
0.00041848795
0.0004154451
0.00041266085
0.00041009603
0.00040771816
0.00040550038
0.00040342026
0.00040145865
0.00039959878
0.00039782548
0.0003961246
0.00039448253
0.00039288579
0.00039132072
0.00038977319
0.00038822834
0.00038667091
0.00038508381
0.00038345281
0.00038175325
0.0003799902
0.00037808668
0.00037620937
0.00037402932
0.00037272907
0.0003724208
0.00037386423
0.0003759066
0.00037750933
0.00037877705
0.0003800838
0.00038156743
0.00038324718
0.00038513862
0.00038724633
0.00038955739
0.00039207435
0.00039480381
0.00039774114
0.00040084178
0.00040385554
0.00040677082
0.00040961027
0.00041224693
0.0004144903
0.00041464508
0.00041181924
0.00040746384
0.00040298971
0.00039887921
0.00039527123
0.00039223233
0.00038973816
0.00038770529
0.00038604486
0.00038468249
0.00038355772
0.00038262154
0.00038183529
0.00038116868
0.00038059818
0.00038010537
0.00037967502
0.00037929553
0.00037895792
0.00037865498
0.00037838076
0.00037813023
0.00037789907
0.00037768347
0.00037748018
0.00037728643
0.00037709982
0.00037691832
0.00037674017
0.00037656365
0.00037638751
0.00037621079
0.00037603306
0.00037585364
0.00037567366
0.00037549035
0.00037531331
0.00037512631
0.00037495798
0.00027471713
0.00036030276
0.00041269468
0.00044195479
0.0004558856
0.00046029967
0.00045918665
0.00045516552
0.00044987586
0.00044426851
0.00043883889
0.00043380751
0.0004292427
0.00042513526
0.00042144143
0.00041810669
0.00041507766
0.00041230716
0.00040975539
0.00040738951
0.00040518246
0.00040311171
0.00040115811
0.00039930491
0.000397537
0.00039584028
0.00039420115
0.00039260612
0.00039104148
0.0003894931
0.00038794617
0.0003863857
0.00038479597
0.00038316461
0.00038147706
0.00037974402
0.00037795859
0.00037626542
0.00037479574
0.00037430511
0.0003764439
0.00038176976
0.00038868638
0.00039562562
0.00040204773
0.00040794145
0.00041333588
0.00041823982
0.00042267763
0.00042667813
0.00043025986
0.00043343471
0.00043621483
0.0004386197
0.00044067651
0.0004422906
0.00044366213
0.00044489341
0.0004459817
0.00044674603
0.00044588508
0.00044290528
0.00043859479
0.0004339641
0.00042953052
0.00042549299
0.0004219313
0.00041883866
0.00041615266
0.00041379954
0.00041171543
0.00040984926
0.00040816139
0.00040662207
0.00040520919
0.00040390594
0.00040269816
0.00040157448
0.00040052568
0.00039954419
0.00039862348
0.00039775765
0.00039694107
0.0003961683
0.00039543415
0.00039473382
0.00039406291
0.00039341748
0.00039279398
0.00039218926
0.00039160059
0.00039102565
0.00039046261
0.00038991
0.00038936695
0.00038883219
0.00038830777
0.00038778621
0.00038729938
0.00038675747
0.00027471501
0.00036028982
0.00041265766
0.00044187894
0.00045576112
0.00046012289
0.00045895895
0.00045489284
0.00044956746
0.00044393481
0.00043848979
0.00043345161
0.00042888693
0.00042478475
0.00042109965
0.00041777569
0.00041475839
0.00041199973
0.00040945936
0.00040710405
0.00040490654
0.00040284422
0.0004008979
0.00039905086
0.00039728803
0.00039559532
0.00039395915
0.00039236601
0.00039080217
0.00038925344
0.00038770514
0.00038614257
0.00038455135
0.00038292133
0.00038124658
0.00037954701
0.0003778616
0.00037635221
0.00037530094
0.00037535167
0.00037795584
0.00038371699
0.00039160477
0.00040012625
0.00040844181
0.00041624414
0.00042339887
0.00042983196
0.00043552655
0.00044049891
0.00044477577
0.00044838831
0.00045137479
0.00045378404
0.00045567891
0.00045712746
0.00045819221
0.0004589222
0.00045933002
0.00045925893
0.000458063
0.0004552531
0.00045126655
0.00044691064
0.00044270504
0.00043888974
0.00043557259
0.00043276353
0.00043039954
0.00042839003
0.00042664805
0.00042510106
0.00042369306
0.00042238393
0.0004211465
0.00041996168
0.00041880644
0.00041767591
0.00041656905
0.00041548636
0.00041442848
0.0004133952
0.00041238511
0.00041139642
0.00041042721
0.00040947563
0.00040853994
0.0004076185
0.0004067098
0.00040581256
0.00040492574
0.00040404864
0.00040318091
0.00040232229
0.00040147362
0.00040063304
0.00039980842
0.000398977
0.00039821808
0.00039732628
0.00027471342
0.00036027998
0.0004126291
0.0004418193
0.00045566136
0.00045997901
0.00045877139
0.00045466598
0.00044930864
0.00044365268
0.00043819282
0.00043314725
0.00042858127
0.0004244824
0.00042080381
0.00041748834
0.00041448055
0.00041173169
0.00040920089
0.00040685458
0.00040466529
0.00040261029
0.00040067036
0.00039882878
0.00039707047
0.00039538137
0.00039374787
0.00039215646
0.00039059334
0.00038904432
0.00038749476
0.00038593024
0.0003843374
0.00038270804
0.0003810425
0.00037936903
0.00037775476
0.00037638051
0.00037558374
0.00037597259
0.00037860335
0.0003840451
0.00039153708
0.00039984813
0.00040819165
0.00041621961
0.00042374512
0.00043064358
0.0004368536
0.00044229926
0.00044697938
0.00045093072
0.00045419666
0.00045683383
0.00045891203
0.0004605062
0.00046168667
0.00046248373
0.00046284595
0.00046258915
0.00046126619
0.00045854411
0.00045473316
0.00045050743
0.00044637974
0.00044262206
0.00043937865
0.00043670038
0.0004345548
0.00043286193
0.00043152805
0.00043046254
0.00042958535
0.00042883083
0.00042814852
0.00042750151
0.00042686313
0.00042621536
0.000425547
0.00042485169
0.00042412664
0.0004233669
0.00042256545
0.00042172598
0.00042085235
0.00041994869
0.00041901793
0.00041806288
0.00041708636
0.00041609132
0.00041508084
0.00041405811
0.00041302652
0.00041198907
0.00041094998
0.0004099088
0.00040887956
0.00040782848
0.00040687443
0.00040571888
0.00027471219
0.00036027239
0.00041260687
0.0004417722
0.0004555813
0.00045986197
0.00045861719
0.00045447781
0.0004490923
0.00044341525
0.00043794142
0.0004328883
0.00042832009
0.00042422311
0.00042054935
0.00041724061
0.0004142406
0.00041149991
0.00040897719
0.00040663855
0.00040445629
0.00040240759
0.00040047316
0.00039863626
0.00039688181
0.00039519575
0.00039356447
0.0003919744
0.00039041172
0.00038886217
0.00038731111
0.00038574422
0.00038414869
0.00038251743
0.0003808542
0.00037919216
0.00037761248
0.00037630773
0.00037563699
0.00037618955
0.0003788383
0.00038405244
0.00039121309
0.0003992199
0.0004073089
0.00041512867
0.0004224954
0.00042928433
0.00043542858
0.00044090332
0.00044570768
0.00044984795
0.0004532788
0.00045606337
0.00045827243
0.00045998149
0.00046125731
0.0004621218
0.0004625151
0.00046224754
0.00046094288
0.0004583267
0.00045465315
0.00045053454
0.00044647657
0.00044276071
0.00043954311
0.00043689472
0.00043480593
0.00043321544
0.00043204208
0.00043120115
0.00043061177
0.00043020168
0.00042990956
0.00042968523
0.00042948867
0.00042928867
0.00042906164
0.00042879035
0.00042846287
0.0004280713
0.00042760963
0.00042707564
0.00042646958
0.00042579459
0.00042503988
0.00042421174
0.00042331768
0.00042236593
0.00042136512
0.00042032357
0.00041924922
0.00041814916
0.0004170315
0.00041589824
0.00041476848
0.00041360268
0.00041254537
0.00041124034
0.00027471124
0.00036026649
0.0004125895
0.00044173498
0.00045551721
0.00045976719
0.00045849115
0.00045432279
0.00044891283
0.00044321711
0.00043773054
0.00043267012
0.00042809921
0.00042400314
0.00042033292
0.00041702945
0.00041403571
0.00041130172
0.0004087857
0.00040645346
0.00040427711
0.00040223371
0.00040030392
0.00039847096
0.00039671975
0.00039503622
0.00039340672
0.00039181767
0.00039025517
0.00038870487
0.00038715201
0.00038558218
0.00038398249
0.00038234587
0.00038067631
0.00037900772
0.00037742246
0.000376115
0.00037544738
0.00037601249
0.0003786884
0.00038394478
0.00039115303
0.00039920204
0.00040732127
0.00041515591
0.00042252116
0.00042929323
0.00043540746
0.00044084394
0.00044560559
0.00044971182
0.00045311208
0.00045586815
0.000458053
0.00045974405
0.00046100944
0.00046187178
0.00046227092
0.00046201653
0.00046072599
0.00045811481
0.00045443398
0.00045030107
0.00044622776
0.00044249912
0.00043927489
0.00043663006
0.00043455873
0.00043300264
0.00043188298
0.00043111646
0.00043062254
0.00043032807
0.0004301697
0.00043009417
0.00043005766
0.00043002485
0.00042996786
0.00042986534
0.00042970151
0.00042946544
0.00042915011
0.00042875184
0.00042826964
0.00042770506
0.00042706026
0.00042633994
0.00042553283
0.00042464671
0.00042369189
0.00042267942
0.00042162052
0.00042052515
0.00041940383
0.00041826039
0.00041711592
0.00041593041
0.00041485455
0.00041351933
0.0002747105
0.00036026191
0.00041257596
0.00044170573
0.0004554663
0.00045969117
0.00045838925
0.00045419661
0.0004487659
0.00044305403
0.0004375562
0.00043248906
0.0004279153
0.00042381947
0.00042015177
0.00041685237
0.00041386364
0.00041113508
0.00040862455
0.00040629759
0.00040412615
0.00040208716
0.00040016123
0.00039833155
0.00039658302
0.00039490154
0.00039327347
0.00039168514
0.0003901226
0.00038857135
0.00038701645
0.00038544312
0.00038383779
0.0003821923
0.00038050771
0.00037881416
0.00037718258
0.00037580013
0.00037501407
0.00037544361
0.00037815925
0.00038372688
0.00039135561
0.00039978611
0.00040821731
0.00041629719
0.00042384121
0.00043073025
0.00043690883
0.00044232603
0.00044696514
0.00045086849
0.00045407896
0.0004566546
0.0004586787
0.0004602376
0.00046140945
0.00046222586
0.0004626388
0.00046245634
0.00046121038
0.00045853974
0.00045474573
0.00045051551
0.00044637702
0.00044261525
0.00043938864
0.00043676214
0.0004347146
0.00043317351
0.0004320488
0.00043124953
0.00043069162
0.00043030231
0.00043002174
0.00042980226
0.00042960691
0.00042940763
0.00042918353
0.00042891945
0.00042860472
0.00042823225
0.00042779782
0.00042729941
0.00042673686
0.00042611124
0.00042542447
0.00042467739
0.00042386214
0.00042298533
0.00042205488
0.00042107938
0.00042006759
0.00041902752
0.00041796783
0.00041689162
0.00041581711
0.0004147093
0.00041370133
0.00041246353
0.00027470993
0.00036025837
0.00041256552
0.00044168304
0.00045542649
0.00045963125
0.00045830839
0.00045409593
0.00044864807
0.00044292268
0.00043741525
0.00043234218
0.0004277657
0.00042366971
0.00042000378
0.00041670748
0.00041372265
0.0004109984
0.00040849226
0.00040616957
0.00040400209
0.00040196669
0.00040004389
0.00039821687
0.00039647049
0.00039479065
0.00039316367
0.00039157584
0.0003900131
0.00038846082
0.00038690374
0.00038532658
0.00038371453
0.00038205743
0.0003803505
0.00037861656
0.00037690084
0.00037537592
0.00037434079
0.00037445863
0.00037719512
0.00038314121
0.00039121012
0.00039988282
0.00040832294
0.00041623825
0.00042350802
0.00043006482
0.00043589127
0.00044099944
0.00044540824
0.00044914114
0.00045222514
0.00045465785
0.00045655628
0.00045802997
0.00045918454
0.0004600793
0.00046069911
0.00046086144
0.00045988754
0.00045724756
0.00045337048
0.00044908625
0.00044494226
0.00044120669
0.00043801687
0.0004354068
0.00043332598
0.00043168435
0.00043038656
0.00042934601
0.00042848976
0.00042776006
0.00042711322
0.00042651721
0.00042594896
0.00042539207
0.00042483482
0.00042426871
0.00042368768
0.00042308755
0.00042246546
0.00042181949
0.00042114881
0.00042044819
0.00041971393
0.00041894803
0.00041815249
0.00041733006
0.00041648401
0.00041561801
0.00041473612
0.00041384226
0.00041294122
0.00041203446
0.0004111341
0.00041021556
0.00040937479
0.00040836782
0.0002747095
0.00036025569
0.00041255764
0.00044166589
0.00045539622
0.00045958541
0.00045824621
0.00045401817
0.0004485567
0.00044282048
0.00043730523
0.00043222723
0.00042764834
0.000423552
0.00041988727
0.00041659325
0.00041361138
0.00041089044
0.00040838771
0.00040606833
0.00040390396
0.00040187135
0.00039995101
0.00039812606
0.00039638137
0.00039470279
0.00039307662
0.00039148912
0.00038992611
0.0003883728
0.00038681361
0.00038523263
0.00038361347
0.00038194361
0.00038020983
0.00037842655
0.00037659506
0.00037487594
0.00037342046
0.00037302148
0.0003753131
0.0003808013
0.00038785513
0.0003949317
0.00040153417
0.00040768469
0.00041342659
0.00041876437
0.00042370503
0.00042825177
0.00043239483
0.00043611418
0.0004392855
0.00044193783
0.00044418149
0.00044613498
0.00044790648
0.00044956069
0.00045108266
0.00045227776
0.00045181197
0.0004491745
0.00044517378
0.00044084682
0.00043674006
0.00043307593
0.00042994682
0.00042734681
0.00042519875
0.00042340872
0.00042190124
0.00042061349
0.00041949502
0.0004185067
0.00041761885
0.00041680911
0.00041606051
0.00041536021
0.00041469588
0.00041405695
0.00041343737
0.00041283254
0.00041223865
0.00041165237
0.00041107071
0.00041049067
0.0004099094
0.00040932474
0.00040873526
0.00040814016
0.00040753924
0.00040693287
0.0004063219
0.0004057076
0.00040509177
0.00040447553
0.00040386397
0.00040324849
0.00040267361
0.00040201782
0.00027470918
0.00036025373
0.00041255196
0.00044165354
0.00045537434
0.00045955216
0.00045820097
0.00045396141
0.00044848982
0.00044274545
0.00043722428
0.00043214248
0.00042756166
0.00042346493
0.00041980097
0.00041650855
0.0004135288
0.00041081026
0.00040831002
0.00040599307
0.00040383098
0.00040180044
0.00039988191
0.00039805849
0.00039631503
0.00039463737
0.00039301178
0.00039142446
0.00038986118
0.00038830698
0.00038674593
0.00038516158
0.00038353584
0.00038185404
0.00038009283
0.00037826161
0.00037629258
0.00037437561
0.00037219454
0.00037099856
0.00037079438
0.00037234611
0.00037453196
0.00037635531
0.00037795542
0.00037973259
0.00038184008
0.00038430051
0.00038712542
0.00039030163
0.00039381134
0.00039765091
0.00040181171
0.00040583007
0.00040972905
0.00041348905
0.00041712092
0.00042060312
0.00042384792
0.00042661014
0.00042730387
0.00042509436
0.00042135751
0.0004174543
0.00041387617
0.00041077436
0.0004082168
0.00040617865
0.00040457525
0.00040331531
0.00040232207
0.00040153381
0.00040090218
0.00040039037
0.00039997071
0.00039962221
0.00039932882
0.00039907806
0.00039885986
0.00039866586
0.00039848926
0.00039832457
0.00039816727
0.00039801357
0.00039786027
0.00039770464
0.00039754436
0.00039737753
0.00039720269
0.00039701883
0.00039682532
0.000396622
0.00039640909
0.00039618742
0.00039595757
0.00039572239
0.00039548019
0.00039524247
0.00039499509
0.00039475915
0.00027470897
0.00036025241
0.00041254821
0.00044164547
0.00045536008
0.00045953046
0.00045817141
0.00045392429
0.00044844601
0.00044269624
0.00043717109
0.00043208672
0.00042750455
0.00042340748
0.00041974398
0.00041645256
0.00041347417
0.00041075719
0.00040825857
0.00040594321
0.00040378262
0.00040175344
0.0003998361
0.00039801369
0.00039627104
0.00039459397
0.00039296875
0.00039138154
0.00038981803
0.00038826317
0.00038670075
0.00038511389
0.00038348299
0.00038179217
0.00038000754
0.00037814155
0.00037603413
0.00037399688
0.0003707559
0.00036885717
0.00036008158
0.00035211417
0.00034505481
0.00033781479
0.00033078642
0.00032448081
0.00031899283
0.00031431074
0.00031048153
0.00030740979
0.00030523716
0.00030431011
0.00030529729
0.00030913147
0.0003146236
0.00032106362
0.00032788928
0.00033478643
0.00034170376
0.00034815276
0.00035879174
0.00036448334
0.00036712765
0.00036869572
0.00036967041
0.0003703457
0.00037099493
0.00037173272
0.00037256622
0.00037347263
0.00037442426
0.00037539379
0.00037635819
0.00037730056
0.00037820953
0.00037907796
0.00037990181
0.00038067921
0.00038140977
0.00038209395
0.00038273276
0.0003833275
0.00038387965
0.00038439074
0.00038486234
0.00038529596
0.00038569313
0.00038605536
0.00038638414
0.00038668101
0.00038694749
0.00038718524
0.00038739589
0.00038758174
0.00038774376
0.00038788787
0.00038800687
0.0003881324
0.00038819572
0.00038835173
0.00027470884
0.00036025167
0.00041254626
0.0004416414
0.00045535296
0.00045951971
0.00045815681
0.00045390597
0.00044842439
0.00044267193
0.00043714479
0.00043205911
0.00042747624
0.00042337898
0.00041971567
0.00041642472
0.00041344699
0.00041073077
0.00040823295
0.00040591838
0.00040375853
0.00040173002
0.00039981327
0.00039799136
0.0003962491
0.00039457233
0.00039294729
0.00039136012
0.00038979649
0.00038824128
0.00038667813
0.00038508992
0.00038345625
0.00038176037
0.00037996303
0.00037807528
0.00037589571
0.00037374656
0.00037006775
0.00036741607
0.0003577462
0.00034909571
0.00034079275
0.00033145838
0.00032163703
0.00031198565
0.00030267748
0.00029375268
0.00028527516
0.00027730934
0.00026954323
0.00026240489
0.00025660339
0.00025311694
0.0002529136
0.00025595319
0.00026170319
0.00026878471
0.00027738268
0.00028193675
0.00029104484
0.00029824162
0.00030633598
0.00031480406
0.00032231369
0.00032871581
0.00033428116
0.00033919392
0.00034355902
0.00034745966
0.00035096336
0.0003541216
0.00035697514
0.00035955831
0.00036190089
0.00036402896
0.00036596543
0.00036773058
0.00036934228
0.00037081627
0.00037216637
0.00037340466
0.00037454176
0.00037558693
0.00037654833
0.00037743314
0.00037824772
0.00037899773
0.00037968825
0.00038032386
0.00038090869
0.00038144662
0.0003819411
0.00038239617
0.00038281366
0.00038320208
0.00038355104
0.00038390556
0.00038416214
0.00038456086
0.00027470884
0.00036025167
0.00041254626
0.0004416414
0.00045535296
0.00045951971
0.00045815681
0.00045390597
0.00044842439
0.00044267193
0.00043714479
0.00043205911
0.00042747624
0.00042337898
0.00041971567
0.00041642472
0.00041344699
0.00041073077
0.00040823295
0.00040591838
0.00040375853
0.00040173002
0.00039981327
0.00039799136
0.0003962491
0.00039457233
0.00039294729
0.00039136012
0.00038979649
0.00038824128
0.00038667813
0.00038508992
0.00038345625
0.00038176037
0.00037996303
0.00037807528
0.00037589571
0.00037374656
0.00037006775
0.00036741607
0.0003577462
0.00034909571
0.00034079275
0.00033145838
0.00032163703
0.00031198564
0.00030267746
0.00029375266
0.00028527513
0.00027730929
0.00026954315
0.00026240477
0.00025660321
0.00025311664
0.00025291319
0.00025595267
0.00026170257
0.00026878403
0.00027738195
0.00028193597
0.00029104397
0.00029824064
0.00030633492
0.00031480296
0.00032231256
0.00032871466
0.00033428001
0.00033919276
0.00034355786
0.0003474585
0.0003509622
0.00035412043
0.00035697394
0.00035955709
0.00036189964
0.00036402766
0.0003659641
0.00036772919
0.00036934082
0.00037081474
0.00037216474
0.00037340294
0.00037453992
0.00037558497
0.00037654622
0.00037743086
0.00037824524
0.00037899504
0.00037968533
0.00038032068
0.00038090522
0.00038144285
0.00038193701
0.00038239172