/*--------------------------------*- C++ -*----------------------------------*\
| =========                 |                                                 |
| \\      /  F ield         | OpenFOAM: The Open Source CFD Toolbox           |
|  \\    /   O peration     | Version:  2412                                  |
|   \\  /    A nd           | Website:  www.openfoam.com                      |
|    \\/     M anipulation  |                                                 |
\*---------------------------------------------------------------------------*/
FoamFile
{
    version     2.0;
    format      ascii;
    arch        "LSB;label=32;scalar=64";
    class       volScalarField;
    location    "120";
    object      p;
}
// * * * * * * * * * * * * * * * * * * * * * * * * * * * * * * * * * * * * * //

dimensions      [0 2 -2 0 0 0 0];

internalField   nonuniform List<scalar> 
120000
(
0.67087829
0.62284162
0.59726023
0.5881198
0.58017399
0.57182263
0.56471955
0.55878451
0.55339372
0.54829485
0.54344716
0.53880924
0.53432705
0.52996268
0.52569472
0.52150926
0.51739633
0.51334955
0.5093656
0.50544328
0.5015829
0.49778594
0.49405489
0.49039321
0.48680524
0.48329628
0.4798726
0.47654147
0.47331107
0.47019036
0.46718841
0.46431401
0.46157213
0.4589654
0.45647374
0.45406915
0.45160519
0.44893072
0.44540109
0.44032575
0.43174215
0.41652063
0.39570439
0.37255212
0.34831282
0.32312985
0.29757771
0.27235967
0.24787822
0.22436592
0.20205765
0.18114335
0.16166872
0.1436291
0.1269976
0.11169135
0.09772092
0.08514663
0.074531044
0.066375422
0.062155251
0.062820335
0.065686368
0.068152442
0.069943461
0.07132912
0.072208335
0.072482957
0.07221772
0.071509054
0.070425517
0.069027189
0.067372656
0.065512491
0.063486899
0.06132909
0.059067386
0.05672437
0.054317845
0.051862248
0.049369236
0.046848129
0.044306354
0.041749837
0.039183335
0.036610716
0.034035172
0.031459129
0.028884693
0.026313974
0.023748758
0.021190639
0.018641177
0.016102003
0.013575253
0.01106184
0.0085697412
0.006083568
0.0036671748
0.0011374818
0.65228863
0.6154885
0.59535028
0.58763898
0.58025931
0.57217178
0.56509803
0.55911215
0.55367224
0.54853448
0.54365333
0.53898551
0.53447584
0.5300858
0.52579429
0.52158798
0.51745722
0.51339567
0.50939982
0.50546816
0.50160065
0.4977984
0.49406359
0.49039938
0.48680991
0.4833003
0.47987673
0.47654643
0.47331762
0.47019945
0.46720131
0.4643328
0.46160013
0.45900816
0.45653866
0.45417752
0.45178722
0.44928465
0.44597711
0.4413443
0.43285141
0.4167662
0.39523563
0.37188923
0.347558
0.32228691
0.29671456
0.27152316
0.24707467
0.2235942
0.20130463
0.18037184
0.16089846
0.14290286
0.12631618
0.11102666
0.096987209
0.084178064
0.07317112
0.064439529
0.060440996
0.062358449
0.066082524
0.068757422
0.070560711
0.071909749
0.072707524
0.072891422
0.072551403
0.071783871
0.070653528
0.069218716
0.067536348
0.06565529
0.063613298
0.061441781
0.059168645
0.056815809
0.054400634
0.051937412
0.049437626
0.04691045
0.044363195
0.041801701
0.039230662
0.036653869
0.034074343
0.031494639
0.028917017
0.026343407
0.023775493
0.021214834
0.018662942
0.016121423
0.01359225
0.011076452
0.008581273
0.0060926275
0.0036740941
0.0011361559
0.64776566
0.61666343
0.59712277
0.58811042
0.58019762
0.57206959
0.56499103
0.55900237
0.55358671
0.5484833
0.54363238
0.53898879
0.53449782
0.53012109
0.52583812
0.52163668
0.51750816
0.51344704
0.50945046
0.50551741
0.50164821
0.49784423
0.49410783
0.49044234
0.48685203
0.48334221
0.47991923
0.47659059
0.47336486
0.47025173
0.46726152
0.46440547
0.46169259
0.45913463
0.45672412
0.45448192
0.4522999
0.45027449
0.44763789
0.44439875
0.43605654
0.41775323
0.39470513
0.37099737
0.34644912
0.32095604
0.2952904
0.27007698
0.24561843
0.22214688
0.19988886
0.179016
0.15961825
0.14168987
0.12515322
0.10986392
0.095713543
0.08252427
0.070865451
0.060754014
0.056704214
0.060724579
0.0658882
0.069036825
0.071072579
0.072534218
0.073305055
0.073402874
0.072976623
0.072133525
0.070939941
0.069455756
0.067735873
0.065825659
0.063761472
0.061574187
0.059289893
0.05692823
0.054505245
0.052035077
0.049529193
0.046996717
0.044444803
0.041879134
0.039304291
0.036723983
0.034141223
0.031558529
0.028978052
0.026401649
0.023830968
0.021267553
0.018712831
0.016168382
0.013635757
0.011116511
0.008615284
0.0061236959
0.0036890913
0.0011561165
0.64471793
0.61454642
0.59556575
0.58674809
0.57926959
0.57160298
0.56479989
0.55895574
0.55363211
0.54858864
0.54377032
0.53914039
0.53465152
0.5302696
0.52597702
0.52176376
0.51762283
0.51354973
0.50954221
0.5055996
0.50172238
0.49791193
0.49417059
0.49050161
0.48690923
0.48339876
0.47997665
0.47665058
0.47342955
0.47032393
0.46734522
0.46450697
0.46182209
0.45931169
0.45698259
0.45490381
0.45301055
0.45169963
0.45014692
0.45002787
0.44205688
0.41928404
0.3937884
0.36954429
0.3446472
0.31885812
0.29307762
0.26783709
0.24337524
0.2199271
0.19771421
0.17693241
0.15767967
0.13992143
0.12355237
0.10838494
0.094241874
0.080760026
0.068395861
0.056171309
0.05211608
0.059151046
0.065901955
0.069428019
0.071662901
0.073206814
0.073917876
0.073917238
0.073405329
0.072488071
0.071231461
0.069698046
0.06794119
0.066003227
0.063918706
0.061716456
0.059420382
0.057049839
0.054620566
0.052145282
0.049634752
0.04709807
0.044542347
0.041973178
0.039395065
0.036811666
0.034225953
0.031640391
0.029057073
0.026477817
0.023904228
0.021337799
0.018779833
0.016231878
0.013694874
0.011171181
0.0086609363
0.0061661657
0.0036988291
0.0011959284
0.64210589
0.61254876
0.59466643
0.58636246
0.5790772
0.57155293
0.56482953
0.55901359
0.55370617
0.5486775
0.5438689
0.53924337
0.53475551
0.53037228
0.5260766
0.52185909
0.5177134
0.51363547
0.50962335
0.50567662
0.50179584
0.49798253
0.49423908
0.4905688
0.48697603
0.48346621
0.48004601
0.47672343
0.47350798
0.47041082
0.46744477
0.46462566
0.46197029
0.45950884
0.45726091
0.4553451
0.45372673
0.45318168
0.45278189
0.45798165
0.45330433
0.42456291
0.3960795
0.37098187
0.34542312
0.31912312
0.29302787
0.26754944
0.24288306
0.21927012
0.19691268
0.17593481
0.15646785
0.13856452
0.12212164
0.10691796
0.092736755
0.07901068
0.066333749
0.050787494
0.046800027
0.056908055
0.065367055
0.069486182
0.072012576
0.073651848
0.074329026
0.074263373
0.073691696
0.072724638
0.071428887
0.069866547
0.068088475
0.066134565
0.064038505
0.061828245
0.059526689
0.057152163
0.054719703
0.052242024
0.04972978
0.047191694
0.044634657
0.042064163
0.039484672
0.036899816
0.03431255
0.03172531
0.029140154
0.026558868
0.023983009
0.021414023
0.018853086
0.016301709
0.013760154
0.011231666
0.0087111153
0.0062128721
0.003704344
0.0012462467
0.63999998
0.61091549
0.59376771
0.58577483
0.57858228
0.57119464
0.56461429
0.55889736
0.5536592
0.5486842
0.54391442
0.53931398
0.53484102
0.5304655
0.52617233
0.52195379
0.5178049
0.51372267
0.50970587
0.50575457
0.50186968
0.49805292
0.49430683
0.49063485
0.48704143
0.48353215
0.48011389
0.47679499
0.47358539
0.470497
0.4675437
0.46474315
0.46211507
0.45969572
0.4575139
0.45571739
0.4543018
0.45423826
0.45467152
0.46202867
0.45869255
0.42780257
0.39833953
0.37297392
0.34707058
0.3204362
0.29407971
0.26837539
0.24349808
0.21968801
0.19715466
0.17603203
0.15642934
0.13836473
0.12174067
0.10634606
0.092012521
0.078090696
0.065460995
0.049988047
0.046624031
0.056811542
0.065195395
0.06941946
0.072084008
0.073781102
0.074462951
0.074388148
0.073804247
0.072824551
0.071517921
0.06994713
0.068163408
0.066206668
0.064109747
0.061899838
0.059599223
0.057226044
0.054795332
0.052319657
0.049809406
0.047273042
0.044717364
0.042147847
0.039568957
0.036984343
0.034396966
0.031809251
0.029223241
0.026640702
0.024063164
0.021492041
0.0189284
0.016373697
0.01382761
0.011294038
0.0087633272
0.0062602636
0.0037126688
0.0012928727
0.63827271
0.60947896
0.59282417
0.58514821
0.57812675
0.57090468
0.56446921
0.55884425
0.55366167
0.54872509
0.54398123
0.53939579
0.53493009
0.53055684
0.52626265
0.52204101
0.51788793
0.51380113
0.50977986
0.50582449
0.50193614
0.49811666
0.49436866
0.49069567
0.48710224
0.48359408
0.48017828
0.47686346
0.47365999
0.47058035
0.46763923
0.46485538
0.46225002
0.45986139
0.45772125
0.45598061
0.45464002
0.45467253
0.45522783
0.46268825
0.45933685
0.42815022
0.39837308
0.37285647
0.3468868
0.32021138
0.29383507
0.26812585
0.24324872
0.21943899
0.19690528
0.17577978
0.1561638
0.13807817
0.12143157
0.10601552
0.091662366
0.077719972
0.065080949
0.049780564
0.046681009
0.056821166
0.065139945
0.06937338
0.072059433
0.073773134
0.074468892
0.074404019
0.07382581
0.072849266
0.071544993
0.069976694
0.068196151
0.066243359
0.064150857
0.061945634
0.059649769
0.057281295
0.054855178
0.052383858
0.049877574
0.047344682
0.044791919
0.042224746
0.03964765
0.037064313
0.034477705
0.031890243
0.029303957
0.026720605
0.0241417
0.021568627
0.019002383
0.016444328
0.013893803
0.011354814
0.0088153212
0.0063049197
0.003729828
0.0013211339
0.63682728
0.60822486
0.5919355
0.58455257
0.57769991
0.57061012
0.56428996
0.55874705
0.55361975
0.54872438
0.54401128
0.5394467
0.534994
0.53062816
0.52633736
0.52211625
0.51796182
0.51387259
0.50984842
0.50589008
0.50199901
0.49817725
0.49442761
0.49075373
0.48716032
0.48365326
0.48023985
0.47692899
0.47373143
0.47066006
0.46773006
0.46496046
0.46237254
0.46000224
0.45787799
0.45612777
0.45473254
0.45447336
0.45443492
0.45994861
0.45533189
0.42577503
0.39638002
0.37079116
0.34496904
0.31848142
0.29226912
0.26672989
0.24203171
0.21840241
0.19603798
0.17508034
0.15563776
0.13772092
0.12121472
0.1059189
0.09165098
0.077825631
0.06506324
0.049692491
0.04641993
0.056632528
0.065149409
0.069403659
0.072041145
0.073743556
0.074450423
0.074394395
0.07382248
0.072852303
0.071553696
0.069990357
0.068214958
0.066267816
0.064181312
0.06198225
0.059692466
0.057329786
0.054909122
0.052442875
0.049941202
0.04741237
0.044863035
0.042298625
0.039723666
0.037141885
0.034556257
0.031969172
0.02938265
0.026798436
0.024218041
0.021642833
0.019073778
0.016512081
0.013957094
0.011412188
0.0088661679
0.0063450093
0.0037617589
0.0013223928
0.63560504
0.60713665
0.59111745
0.58397904
0.57728262
0.57031305
0.56410115
0.55864243
0.55357419
0.54872152
0.54403945
0.53949574
0.53505577
0.5306969
0.52640905
0.5221881
0.51803206
0.51394026
0.50991311
0.50595179
0.50205803
0.49823407
0.49448287
0.49080821
0.48721492
0.48370904
0.48029807
0.47699117
0.47379936
0.47073584
0.46781595
0.46505837
0.4624832
0.46012054
0.4579914
0.45617835
0.45464355
0.45378393
0.45279565
0.45312195
0.44492633
0.42074855
0.39385814
0.36892273
0.3437172
0.31773554
0.29185418
0.26658408
0.24212389
0.21868637
0.19648351
0.17567395
0.15635377
0.13852824
0.12211059
0.10688447
0.092629241
0.078962863
0.066374614
0.053986933
0.050631738
0.058347806
0.065589454
0.069447818
0.071901688
0.073560935
0.074301658
0.074284208
0.07374092
0.072794794
0.071516778
0.069970251
0.068208852
0.066273944
0.06419839
0.062009217
0.059728291
0.057373428
0.054959664
0.052499496
0.050003118
0.0474788
0.044933151
0.042371588
0.039798734
0.037218413
0.034633604
0.03204666
0.029459591
0.026874149
0.024291857
0.021714064
0.019141749
0.016575922
0.014016302
0.011464886
0.0089147606
0.0063794498
0.0038106019
0.0012938104
0.63456494
0.60619311
0.5903753
0.5834387
0.57688704
0.57002887
0.56391445
0.55853314
0.55352022
0.54870741
0.5440546
0.53953127
0.53510445
0.53075343
0.52646966
0.52225013
0.51809374
0.5140005
0.50997138
0.50600795
0.50211219
0.49828659
0.49453426
0.49085912
0.48726616
0.48376159
0.48035311
0.47705009
0.47386382
0.47080768
0.46789701
0.46514968
0.46258381
0.46022213
0.45807424
0.45617499
0.45444433
0.45296784
0.45093768
0.448142
0.43920832
0.41891153
0.39397174
0.36934249
0.34445396
0.31882765
0.29316422
0.26804898
0.24373015
0.22040651
0.19828318
0.17751588
0.15818734
0.14029394
0.12374655
0.10837102
0.094028243
0.080517755
0.068417728
0.057877028
0.054286309
0.059371376
0.06548032
0.069213423
0.071598394
0.073237884
0.074038752
0.074088081
0.07359368
0.072687136
0.071442387
0.069922252
0.068181832
0.066264358
0.064203758
0.062027752
0.059758027
0.057412348
0.055006467
0.052553219
0.050062863
0.047543656
0.045002082
0.042443553
0.03987287
0.037293996
0.034709893
0.032122845
0.029534858
0.026947687
0.02436291
0.021781927
0.019205786
0.016635266
0.014070742
0.011512276
0.008960081
0.0064079979
0.0038726341
0.0012389454
0.63367723
0.6053768
0.58971158
0.58294015
0.57651778
0.56975991
0.56373163
0.5584207
0.55346023
0.54868599
0.54406181
0.53955892
0.5351457
0.53080307
0.52652395
0.52230639
0.51815013
0.51405588
0.51002515
0.50605989
0.50216238
0.49833532
0.49458199
0.49090647
0.4873139
0.48381064
0.48040458
0.47710532
0.47392435
0.47087519
0.4679731
0.46523502
0.46267687
0.46031408
0.4581442
0.4561601
0.45423874
0.45225512
0.44942009
0.44493821
0.4354451
0.41711872
0.39356523
0.36922714
0.34457931
0.31927255
0.29382502
0.26885645
0.24467719
0.2214797
0.1994535
0.17875111
0.15944896
0.14153946
0.12494738
0.10954023
0.095239837
0.082009208
0.070446966
0.061169197
0.057470127
0.060623162
0.065636353
0.069125737
0.071366743
0.072926025
0.073755513
0.073862455
0.073414063
0.072546995
0.071338091
0.069848254
0.068133061
0.066237238
0.064195643
0.062037367
0.059783318
0.057449868
0.055053679
0.05260837
0.050124674
0.047611014
0.045073492
0.04251753
0.039948489
0.03737064
0.034786827
0.032199194
0.029609765
0.027020252
0.024432304
0.02184743
0.019266789
0.016690947
0.014121069
0.011555079
0.0090017527
0.0064316099
0.003940559
0.0011692262
0.63292
0.60467354
0.58912534
0.58248789
0.5761781
0.56950962
0.56355754
0.55831005
0.55339826
0.54866016
0.54406285
0.53957932
0.53517922
0.53084491
0.5265706
0.52235536
0.51819969
0.51410494
0.51007309
0.50610645
0.5022076
0.49837942
0.49462536
0.49094968
0.48735762
0.48385573
0.48045207
0.47715645
0.47398056
0.47093807
0.46804418
0.46531515
0.46276502
0.4604035
0.45821822
0.45617164
0.45410742
0.45177526
0.4483981
0.44293073
0.43291206
0.4156022
0.39307292
0.3690454
0.34457051
0.31948497
0.29419305
0.26932549
0.24524701
0.22214956
0.20020397
0.17955834
0.16028382
0.14236944
0.12575029
0.1103238
0.096056411
0.083018085
0.071809744
0.063240562
0.059461796
0.061385028
0.065587779
0.068914998
0.071108138
0.0726452
0.07352053
0.073690305
0.073288577
0.072457647
0.071279302
0.069813883
0.068117945
0.066238065
0.064209873
0.062061825
0.059816233
0.057491385
0.05510341
0.052665388
0.05018827
0.04768101
0.045148628
0.042595604
0.040028051
0.037451042
0.034867171
0.032278237
0.029686536
0.027093838
0.02450196
0.021912526
0.019326753
0.016745011
0.014169194
0.011595323
0.0090402085
0.0064525389
0.0040041938
0.0011019444
0.63227683
0.60407178
0.58861405
0.58208467
0.57587113
0.56928117
0.56339576
0.55820436
0.55333658
0.54863162
0.54405909
0.53959366
0.53520611
0.53087999
0.52661062
0.52239798
0.51824327
0.5141484
0.51011579
0.50614812
0.5022482
0.49841912
0.49466452
0.49098876
0.48739725
0.4838967
0.48049532
0.47720315
0.47403208
0.47099597
0.46811014
0.46539053
0.46285025
0.46049585
0.45830921
0.45623649
0.45410245
0.45159708
0.4479437
0.44200925
0.43172102
0.41485716
0.39282087
0.36891882
0.34448127
0.3194747
0.29424556
0.26941949
0.24538213
0.22232596
0.20042092
0.17981776
0.16057674
0.14267492
0.12605228
0.11062094
0.096369059
0.083419355
0.072371141
0.064094572
0.060269842
0.061639782
0.065469585
0.068746413
0.070942253
0.07248203
0.073392133
0.073606451
0.073240014
0.072437519
0.071283453
0.069837699
0.06815729
0.0662899
0.064271717
0.062131407
0.059892179
0.057572917
0.055189388
0.052754555
0.05027906
0.047771411
0.045237884
0.042684133
0.040115821
0.037538862
0.03495527
0.032365297
0.029770908
0.027173807
0.024576656
0.021981561
0.019389754
0.016801396
0.014218795
0.011636709
0.0090773036
0.0064745275
0.0040528679
0.0010568791
0.63173519
0.6035622
0.58817471
0.58173192
0.57559921
0.56907693
0.56324903
0.55810637
0.55327759
0.5486024
0.54405227
0.53960335
0.53522742
0.530909
0.52664441
0.52243441
0.51828083
0.51418608
0.510153
0.50618456
0.50228382
0.49845407
0.49469907
0.49102334
0.48743242
0.48393315
0.48053394
0.47724498
0.47407845
0.47104846
0.46817063
0.46546118
0.46293342
0.46059387
0.45842397
0.45636857
0.45424993
0.45175362
0.44809642
0.44213831
0.43179843
0.4148584
0.39274202
0.36876823
0.34427134
0.31922114
0.29396518
0.26912837
0.24509469
0.22205494
0.2001755
0.17960359
0.16039546
0.14252288
0.12592003
0.11049242
0.096225797
0.083244291
0.07215289
0.063831098
0.059976475
0.061374057
0.065270326
0.068608925
0.070856862
0.072444955
0.073395965
0.073641061
0.073297069
0.072510959
0.071368698
0.069931479
0.06825746
0.066395048
0.064380804
0.062243551
0.06000674
0.057689384
0.05530708
0.052872612
0.050396449
0.047887159
0.045351578
0.042795526
0.040224333
0.037642679
0.035053291
0.032459743
0.029862789
0.027261325
0.024658484
0.022057129
0.019458653
0.016863158
0.014272943
0.011682484
0.0091149381
0.0065011376
0.0040781292
0.001050095
0.6312855
0.60313739
0.58780429
0.58143014
0.57536403
0.56889885
0.5631196
0.55801843
0.55322334
0.54857418
0.54404375
0.53960946
0.53524394
0.53093255
0.52667241
0.52246496
0.51831259
0.51421814
0.51018481
0.50621584
0.5023145
0.49848424
0.49472897
0.49105333
0.48746299
0.48396491
0.48056767
0.47728166
0.4741193
0.47109508
0.46822511
0.46552649
0.46301393
0.46069708
0.45856229
0.45656824
0.45455121
0.45224752
0.44886014
0.44332273
0.43314794
0.41560688
0.3928344
0.3685886
0.34393428
0.31871776
0.29334582
0.26844707
0.24438055
0.22133336
0.19946875
0.1789231
0.15975233
0.14192885
0.12537156
0.10995709
0.095644022
0.08250711
0.071167539
0.062459407
0.058583744
0.060591157
0.064992924
0.068502267
0.070850005
0.072531367
0.073529807
0.073793475
0.073461433
0.07268225
0.071541716
0.0701037
0.06842777
0.06656254
0.064544765
0.062403507
0.060162445
0.057840763
0.055454039
0.053014932
0.050533851
0.048019434
0.045478704
0.042917564
0.040341295
0.037754236
0.035159361
0.032560463
0.029957813
0.027350447
0.024741704
0.022134309
0.019529461
0.016927218
0.014329349
0.011731127
0.0091517137
0.0065321516
0.0040755126
0.0010870539
0.63092038
0.60279147
0.58750003
0.58117936
0.5751668
0.56874846
0.56300928
0.55794244
0.55317556
0.54854843
0.54403477
0.53961299
0.53525648
0.53095124
0.52669505
0.52248994
0.51833874
0.51424468
0.51021124
0.5062419
0.50234013
0.4985095
0.49475406
0.49107854
0.48748873
0.48399172
0.48059621
0.47731281
0.47415419
0.47113526
0.4682728
0.46558525
0.46308969
0.46080166
0.45871686
0.45682214
0.45498255
0.45305047
0.45020203
0.44560395
0.43584292
0.41712448
0.39316047
0.36845224
0.34350132
0.3179731
0.29238866
0.26736552
0.24320683
0.22009321
0.1981999
0.17766331
0.15853808
0.14078993
0.12431201
0.10893778
0.09457384
0.081183925
0.069405487
0.059888123
0.056017786
0.059344424
0.06470695
0.06849563
0.070990433
0.072786784
0.073815045
0.074070853
0.073730809
0.072941751
0.071787631
0.07033603
0.068647789
0.06677104
0.064742376
0.062590922
0.060340363
0.05800989
0.055614953
0.053167878
0.050678957
0.048156979
0.045609077
0.043041157
0.040458742
0.037866298
0.03526582
0.032659311
0.030048585
0.02743494
0.024820784
0.022207964
0.019597351
0.016989061
0.014383916
0.011778925
0.0091850298
0.0065646932
0.0040479274
0.0011605573
0.63063424
0.60251987
0.58725954
0.58097932
0.57500832
0.56862693
0.56291946
0.55787992
0.55313568
0.54852638
0.54402634
0.53961478
0.53526568
0.53096555
0.52671269
0.52250958
0.51835944
0.51426577
0.51023232
0.50626275
0.50236067
0.49852979
0.49477424
0.49109886
0.48750952
0.48401341
0.48061936
0.47733815
0.47418272
0.4711684
0.46831273
0.46563575
0.46315745
0.46090101
0.45887407
0.4571037
0.45549401
0.45409862
0.4520582
0.4490981
0.43975509
0.41888986
0.39336462
0.36820796
0.34289313
0.31695788
0.29110496
0.26591795
0.24163426
0.21843363
0.19650171
0.17597387
0.15690703
0.13925068
0.12286115
0.1075263
0.093090395
0.079348974
0.06693745
0.056010834
0.052148749
0.057589288
0.064247061
0.068401722
0.07114237
0.073109227
0.074174111
0.074416063
0.074060325
0.073251211
0.072072058
0.070596094
0.06888606
0.066989725
0.064943488
0.062776411
0.060511997
0.058169418
0.055764098
0.053307679
0.050809907
0.048279663
0.045724163
0.04314926
0.040559983
0.037960287
0.03535279
0.03273989
0.030123667
0.02750557
0.024887217
0.022270034
0.019654739
0.017041598
0.014430236
0.011819969
0.0092111476
0.0065938567
0.0040039307
0.0012527793
0.6304229
0.60231911
0.5870809
0.58082964
0.57488914
0.56853513
0.56285123
0.55783204
0.55310481
0.54850899
0.5440193
0.53961553
0.5352721
0.53097592
0.52672564
0.52252412
0.51837483
0.51428151
0.51024809
0.50627838
0.5023761
0.49854505
0.49478944
0.49111419
0.48752522
0.48402981
0.4806369
0.47735741
0.4742045
0.4711939
0.46834386
0.46567602
0.46321322
0.46098672
0.45901598
0.45737486
0.45600675
0.45526839
0.4542842
0.45441101
0.44564873
0.42071328
0.39304864
0.36742372
0.34167598
0.31530715
0.2891912
0.26383618
0.23942434
0.21613965
0.19417058
0.17366324
0.15470015
0.13722383
0.12104738
0.10589357
0.091532627
0.077572991
0.064566765
0.05155313
0.047772027
0.056159904
0.064174517
0.068545572
0.071438131
0.073497915
0.074547106
0.074745997
0.074353791
0.073511591
0.072302746
0.070801966
0.069071332
0.067157423
0.065096072
0.062916007
0.060640366
0.0582878
0.055873264
0.053408632
0.050903839
0.048367422
0.045806352
0.043226331
0.040632144
0.038027665
0.035415804
0.032798951
0.030179057
0.027557631
0.024936103
0.022315739
0.019697064
0.017080464
0.014464362
0.011850455
0.0092284644
0.0066161705
0.0039556005
0.0013426275
0.63028343
0.60218671
0.58696266
0.58073
0.57480956
0.56847368
0.56280533
0.55779966
0.55308379
0.54849701
0.54401426
0.53961574
0.53527615
0.53098265
0.52673415
0.52253371
0.51838502
0.51429197
0.51025859
0.5062888
0.5023864
0.49855525
0.49479961
0.49112444
0.48753573
0.48404081
0.48064869
0.47737038
0.47421922
0.47121124
0.46836524
0.46570416
0.46325305
0.46105016
0.45912349
0.45759243
0.45641841
0.45633316
0.45633847
0.46160882
0.45631566
0.4258616
0.39553557
0.3691379
0.34269678
0.31576653
0.28928295
0.26363758
0.23898057
0.21549646
0.19334769
0.17266179
0.15350117
0.1358642
0.11962414
0.1044658
0.090119215
0.075978255
0.062750492
0.046379694
0.042627709
0.054009483
0.063583912
0.068449094
0.071592493
0.073741774
0.074778104
0.07494688
0.074529874
0.073665668
0.072437891
0.07092189
0.069178946
0.067254752
0.065184706
0.062997254
0.060715257
0.058357079
0.055937522
0.053468537
0.050959989
0.048420174
0.045855966
0.043273026
0.04067606
0.038068897
0.035454513
0.032835285
0.030213164
0.02758973
0.024966329
0.022344098
0.019723387
0.0171047
0.01448551
0.011869473
0.0092378341
0.0066304259
0.0039151689
0.0014120986
0.63021399
0.60212095
0.58690382
0.5806802
0.57476976
0.56844292
0.56278229
0.55778334
0.55307316
0.5484909
0.54401165
0.53961576
0.53527811
0.53098596
0.52673836
0.52253848
0.5183901
0.51429718
0.51026383
0.50629401
0.50239155
0.49856035
0.4948047
0.49112958
0.48754101
0.48404633
0.48065461
0.4773769
0.47422664
0.47122002
0.46837613
0.46571864
0.46327385
0.46108386
0.45918197
0.45771224
0.45665692
0.456935
0.45760839
0.46483592
0.4608246
0.42858804
0.39764316
0.3711641
0.3444814
0.31728999
0.29058799
0.26473471
0.2398657
0.21618388
0.19384951
0.17297341
0.15363814
0.1358348
0.11941803
0.10408205
0.089612569
0.07531688
0.062183392
0.045888693
0.042624132
0.054041552
0.06347621
0.068378356
0.071616359
0.073803417
0.074841361
0.075007696
0.074588066
0.073719555
0.072487096
0.070967014
0.069220568
0.067293294
0.065220543
0.063030719
0.060746619
0.058386538
0.055965243
0.053494696
0.050984732
0.048443595
0.045878146
0.04329404
0.040695944
0.038087665
0.035472204
0.032851957
0.030228888
0.027604595
0.024980374
0.022357306
0.019735658
0.017116014
0.014495326
0.011878345
0.0092416526
0.0066372009
0.0038924148
0.0014494891
0.63021399
0.60212095
0.58690382
0.5806802
0.57476976
0.56844292
0.56278229
0.55778334
0.55307316
0.5484909
0.54401165
0.53961576
0.53527811
0.53098596
0.52673836
0.52253848
0.5183901
0.51429718
0.51026383
0.50629401
0.50239155
0.49856035
0.4948047
0.49112958
0.48754101
0.48404633
0.48065461
0.4773769
0.47422664
0.47122002
0.46837613
0.46571864
0.46327385
0.46108386
0.45918196
0.45771224
0.45665692
0.456935
0.45760839
0.46483592
0.4608246
0.42858803
0.39764315
0.37116409
0.3444814
0.31728999
0.29058798
0.26473471
0.2398657
0.21618388
0.1938495
0.17297341
0.15363814
0.13583479
0.11941802
0.10408205
0.089612559
0.07531687
0.062183384
0.045888701
0.042624156
0.054041562
0.063476214
0.068378362
0.071616366
0.073803424
0.074841369
0.075007705
0.074588077
0.073719567
0.072487109
0.070967028
0.069220584
0.067293312
0.065220562
0.06303074
0.060746641
0.058386561
0.055965268
0.053494725
0.050984765
0.04844363
0.045878184
0.04329408
0.040695985
0.038087708
0.035472251
0.032852008
0.030228943
0.027604653
0.024980435
0.022357368
0.019735723
0.017116082
0.014495396
0.011878418
0.0092417269
0.0066372754
0.0038925197
0.001449466
0.63028343
0.60218671
0.58696266
0.58073
0.57480956
0.56847368
0.56280533
0.55779966
0.55308379
0.54849701
0.54401426
0.53961574
0.53527615
0.53098265
0.52673415
0.52253371
0.51838502
0.51429197
0.51025859
0.5062888
0.5023864
0.49855524
0.49479961
0.49112444
0.48753573
0.48404081
0.48064869
0.47737038
0.47421922
0.47121124
0.46836524
0.46570416
0.46325305
0.46105015
0.45912348
0.45759242
0.4564184
0.45633315
0.45633846
0.46160882
0.45631564
0.42586158
0.39553555
0.36913788
0.34269676
0.31576651
0.28928293
0.26363756
0.23898055
0.21549644
0.19334767
0.17266178
0.15350116
0.13586418
0.11962411
0.10446577
0.090119181
0.075978217
0.062750453
0.046379681
0.042627744
0.054009507
0.063583931
0.06844912
0.071592522
0.073741804
0.074778137
0.074946916
0.074529912
0.073665707
0.072437932
0.070921934
0.069178992
0.067254802
0.06518476
0.062997312
0.060715318
0.058357141
0.05593759
0.053468616
0.050960076
0.048420267
0.045856066
0.043273132
0.040676168
0.038069009
0.035454635
0.032835417
0.030213306
0.027589883
0.02496649
0.022344265
0.019723561
0.017104882
0.014485699
0.011869672
0.0092380359
0.0066306327
0.0039154514
0.0014120493
0.6304229
0.60231911
0.5870809
0.58082964
0.57488913
0.56853513
0.56285122
0.55783204
0.55310481
0.54850899
0.5440193
0.53961553
0.5352721
0.53097592
0.52672564
0.52252412
0.51837483
0.51428151
0.51024809
0.50627838
0.5023761
0.49854505
0.49478944
0.49111419
0.48752521
0.48402981
0.4806369
0.47735741
0.4742045
0.4711939
0.46834386
0.46567602
0.46321321
0.46098671
0.45901597
0.45737485
0.45600674
0.45526838
0.45428419
0.454411
0.44564871
0.42071326
0.39304861
0.36742369
0.34167596
0.31530712
0.28919117
0.26383614
0.2394243
0.21613962
0.19417054
0.1736632
0.1547001
0.13722378
0.12104732
0.10589351
0.091532566
0.077572927
0.064566699
0.051553068
0.047772009
0.056159915
0.064174545
0.068545613
0.071438181
0.073497968
0.074547162
0.074746059
0.074353852
0.073511647
0.072302804
0.070802026
0.069071395
0.06715749
0.065096142
0.06291608
0.06064044
0.058287867
0.055873341
0.053408733
0.05090395
0.048367536
0.045806472
0.043226456
0.040632269
0.038027794
0.035415946
0.032799106
0.030179227
0.027557819
0.024936304
0.02231595
0.019697285
0.017080699
0.014464608
0.011850721
0.009228734
0.0066164603
0.0039559722
0.0013426037
0.63063424
0.60251987
0.58725954
0.58097932
0.57500832
0.56862693
0.56291946
0.55787992
0.55313568
0.54852638
0.54402634
0.53961478
0.53526568
0.53096555
0.52671269
0.52250958
0.51835943
0.51426577
0.51023232
0.50626275
0.50236067
0.49852979
0.49477424
0.49109886
0.48750952
0.4840134
0.48061936
0.47733815
0.47418272
0.47116839
0.46831272
0.46563575
0.46315744
0.460901
0.45887406
0.45710369
0.455494
0.45409861
0.45205819
0.44909808
0.43975506
0.41888983
0.39336459
0.36820792
0.34289309
0.31695783
0.29110491
0.2659179
0.2416342
0.21843357
0.19650164
0.17597379
0.15690696
0.13925061
0.12286107
0.10752621
0.09309031
0.079348883
0.066937353
0.056010727
0.052148674
0.057589265
0.064247065
0.06840174
0.0711424
0.073109263
0.074174152
0.074416122
0.074060388
0.07325126
0.072072103
0.070596139
0.068886106
0.066989772
0.064943535
0.062776458
0.06051204
0.058169427
0.055764101
0.053307724
0.05080997
0.048279727
0.045724229
0.043149325
0.040560033
0.03796034
0.035352864
0.032739978
0.03012377
0.027505694
0.024887356
0.022270186
0.019654906
0.017041785
0.014430441
0.011820204
0.0092113876
0.0065941471
0.0040042585
0.0012528435
0.63092038
0.60279147
0.58750003
0.58117936
0.5751668
0.56874846
0.56300928
0.55794244
0.55317556
0.54854843
0.54403477
0.53961299
0.53525648
0.53095124
0.52669505
0.52248994
0.51833874
0.51424468
0.51021123
0.5062419
0.50234012
0.4985095
0.49475405
0.49107854
0.48748873
0.48399172
0.48059621
0.47731281
0.47415419
0.47113525
0.46827279
0.46558524
0.46308968
0.46080165
0.45871685
0.45682213
0.45498254
0.45305045
0.45020201
0.44560393
0.43584289
0.41712444
0.39316043
0.36845219
0.34350126
0.31797304
0.29238859
0.26736545
0.24320676
0.22009313
0.19819981
0.17766321
0.15853798
0.14078982
0.12431189
0.10893766
0.09457371
0.081183788
0.069405343
0.059887976
0.056017663
0.059344341
0.06470689
0.068495582
0.070990395
0.072786752
0.073815015
0.074070828
0.073730783
0.072941717
0.071787594
0.070335991
0.068647747
0.066770995
0.064742326
0.062590865
0.060340297
0.058009808
0.055614871
0.05316781
0.050678888
0.048156901
0.045608991
0.043041061
0.040458591
0.037866124
0.03526568
0.032659196
0.030048503
0.027434885
0.024820741
0.022207931
0.019597337
0.016989075
0.014383955
0.01177901
0.0091851198
0.0065648803
0.0040480584
0.0011607665
0.6312855
0.60313739
0.58780429
0.58143014
0.57536403
0.56889885
0.5631196
0.55801843
0.55322334
0.54857418
0.54404375
0.53960946
0.53524394
0.53093255
0.52667241
0.52246496
0.51831259
0.51421814
0.51018481
0.50621584
0.5023145
0.49848424
0.49472897
0.49105333
0.48746298
0.48396491
0.48056766
0.47728165
0.4741193
0.47109507
0.4682251
0.46552648
0.46301391
0.46069706
0.45856227
0.45656822
0.45455119
0.4522475
0.44886011
0.4433227
0.43314791
0.41560683
0.39283435
0.36858855
0.34393421
0.31871769
0.29334574
0.26844698
0.24438045
0.22133325
0.19946863
0.17892297
0.15975219
0.1419287
0.12537141
0.10995692
0.095643844
0.082506922
0.071167342
0.062459207
0.058583555
0.060590991
0.064992775
0.068502127
0.07084987
0.072531233