/*--------------------------------*- C++ -*----------------------------------*\
| =========                 |                                                 |
| \\      /  F ield         | OpenFOAM: The Open Source CFD Toolbox           |
|  \\    /   O peration     | Version:  2412                                  |
|   \\  /    A nd           | Website:  www.openfoam.com                      |
|    \\/     M anipulation  |                                                 |
\*---------------------------------------------------------------------------*/
FoamFile
{
    version     2.0;
    format      ascii;
    arch        "LSB;label=32;scalar=64";
    class       volScalarField;
    location    "302";
    object      epsilon;
}
// * * * * * * * * * * * * * * * * * * * * * * * * * * * * * * * * * * * * * //

dimensions      [0 2 -3 0 0 0 0];

internalField   nonuniform List<scalar> 
12225
(
168090
190202
140849
93575.4
70809.7
58451.8
50259.5
44423.1
40236.7
37184.9
34911.4
33201.4
31930
31013.8
30429.6
30125.8
30197.9
28854.2
26544.3
42153.9
36114.5
26268.5
20027.3
16327.1
13925.9
12243.1
11027.9
10133.5
9460.91
8946.42
8550.28
8247.72
8018.12
7852.84
7729.45
7701.97
2755.9
8151.59
8709.57
7909.68
6750.63
5896.29
5237.97
4724.22
4318.55
3996.44
3738.39
3530.12
3360.03
3221.32
3100.76
3015.93
2878.98
2891.17
121.649
1581.64
2155.61
2232.27
2163.54
2051.98
1944.74
1857.18
1783.13
1718.01
1659.4
1607.38
1559.62
1516.34
1472.52
1438.98
1382.6
1362.02
41.5941
283.312
563.882
684
720.391
717.982
705.563
692.626
682.902
676.419
671.143
667.751
663.73
660.605
654.271
650.545
634.706
633.947
5.59469
59.2764
131.883
212.558
263.032
286.595
295.256
294.929
293.149
289.76
286.636
284.57
282.614
281.706
280.021
279.431
274.789
276.212
3.1696
23.4928
37.5935
65.2833
92.0504
113.011
127.769
136.7
141.442
143.847
143.933
143.591
142.586
141.46
139.663
138.648
135.352
135.694
12.4134
16.2101
19.5326
27.4368
37.0662
46.7889
55.5678
62.8871
68.4628
72.6737
75.5067
77.3989
78.4407
79.0507
78.8618
78.7543
77.5774
77.8766
14.4345
15.1285
15.9425
18.0832
21.267
25.0411
28.92
32.6495
35.9493
38.8468
41.2042
43.1836
44.6432
45.8782
46.6112
47.2978
47.4077
47.954
14.7609
14.8948
15.0825
15.7247
16.5814
17.9943
19.5775
21.2457
22.8392
24.3742
25.7168
26.9835
27.9898
28.9769
29.6364
30.3893
30.7034
31.3037
14.7839
14.7839
14.8125
14.9828
15.1943
15.6561
16.243
16.9273
17.619
18.3413
19.0002
19.6751
20.232
20.8273
21.2441
21.762
22.005
22.5027
14.786
14.6999
14.6927
14.7228
14.7737
14.8995
15.1103
15.3855
15.6764
16.0056
16.3156
16.6564
16.9447
17.2725
17.5085
17.816
17.9699
18.2796
14.7832
14.661
14.6003
14.5686
14.5683
14.5819
14.62
14.7037
14.7972
14.9159
15.031
15.1708
15.2911
15.4392
15.5475
15.6963
15.7733
15.9335
14.7762
14.6365
14.5378
14.4683
14.4187
14.3826
14.3605
14.3503
14.3519
14.3597
14.3724
14.3964
14.4157
14.4487
14.4707
14.508
14.5252
14.5696
14.771
14.6184
14.4958
14.3994
14.3198
14.2523
14.1945
14.1448
14.1001
14.0614
14.0241
13.9933
13.9613
13.9369
13.9076
13.8893
13.8586
13.848
14.7678
14.6062
14.4687
14.3539
14.2548
14.167
14.0873
14.0148
13.9464
13.8828
13.8211
13.7639
13.7071
13.6551
13.6016
13.5548
13.5028
13.4618
14.7661
14.5992
14.453
14.3268
14.2155
14.1149
14.0222
13.9358
13.8538
13.776
13.7009
13.6292
13.5593
13.4929
13.4273
13.366
13.3038
13.248
14.7654
14.5965
14.4463
14.3144
14.1967
14.0893
13.9895
13.8957
13.8065
13.7211
13.639
13.56
13.4836
13.4101
13.339
13.2707
13.2046
13.1414
14.7661
14.5982
14.4487
14.317
14.1992
14.091
13.9904
13.8954
13.8051
13.7184
13.6352
13.5549
13.4777
13.4032
13.3318
13.2627
13.1971
13.1332
14.7685
14.6056
14.4633
14.34
14.2304
14.1301
14.0376
13.9507
13.8692
13.7912
13.7177
13.6471
13.5808
13.5169
13.4578
13.3999
13.3483
13.2953
14.775
14.6184
14.4911
14.3865
14.296
14.2166
14.1493
14.0889
14.0398
13.9969
13.9641
13.9357
13.9163
13.8995
13.8907
13.8826
13.8828
13.8766
14.8
14.6236
14.5472
14.4943
14.4714
14.4748
14.5185
14.5697
14.6713
14.7874
14.9341
15.0792
15.2492
15.4023
15.5819
15.7279
15.9119
16.0375
14.8714
14.5269
14.8204
14.9269
15.227
15.6372
16.2008
16.8419
17.5755
18.3047
19.0768
19.7812
20.5137
21.1338
21.7984
22.3104
22.9096
23.3028
14.8065
13.9618
16.0673
17.1514
19.3409
21.9338
24.8107
27.6682
30.4838
33.0151
35.3943
37.3763
39.2449
40.6721
42.1059
43.0583
44.1817
44.7421
12.2736
13.3289
22.1151
32.1157
44.4293
56.234
66.8103
75.5295
82.489
87.662
91.5284
94.182
96.0794
97.2127
98.0756
98.4214
98.846
98.6571
6.96573
33.0389
79.7756
139.585
187.847
219.036
237.076
245.783
248.821
248.288
247.287
245.407
243.584
242.361
241.597
241.636
242.363
242.264
36.467
259.708
587.125
753.895
817.914
825.965
815.793
800.099
784.601
772.635
765.693
760.906
759.579
759.849
761.174
763.503
767.883
769.099
80.4024
2601.45
3663.4
3827.97
3682.38
3449.4
3218.06
3040.24
2891.7
2764.99
2656.02
2558.58
2472.37
2394.05
2324.56
2259.77
2203.89
2147.51
6743.18
20874.9
21815
19357.2
15852.8
13426.5
11696.1
10379.4
9333.8
8491.07
7807.91
7248.29
6785.68
6398.31
6071.2
5791.03
5550
5336.57
65726.8
118697
105717
79396.3
61559.7
51116.9
44114.4
38869.6
34800.3
31601.5
29047.6
26972.9
25262.1
23830.6
22617.1
21577.5
20671.6
19891.9
0.348026
0.185338
0.218485
0.264304
0.32294
0.393349
0.473513
0.560718
0.651915
0.744098
0.834626
0.921457
1.00325
1.07938
1.14985
1.21528
1.27676
1.33594
1.39514
1.45799
1.5306
1.62432
1.76198
1.94841
2.17227
2.4286
2.7158
3.03425
3.38555
3.77216
4.19722
4.66444
5.17813
5.7431
6.36483
7.04938
7.80334
8.63393
9.54914
10.5578
11.6698
12.8958
14.2478
15.7388
17.3834
19.1973
21.1979
23.404
25.8364
28.5173
31.4709
34.7226
38.2999
42.2312
46.5462
51.2764
56.4604
62.1367
68.3454
75.1278
82.5266
90.5853
99.3489
108.863
119.172
130.323
142.36
155.326
169.264
184.212
200.21
217.289
235.48
254.81
275.299
296.961
319.806
343.831
369.032
395.396
422.905
451.532
481.245
512.002
543.758
576.453
610.025
644.394
679.481
715.206
751.495
788.252
825.367
862.732
900.235
937.762
975.194
1012.41
1049.29
1085.7
1121.53
1156.65
1190.92
1224.24
1256.43
1287.41
1317.03
1345.19
1371.75
1396.65
1419.74
1440.95
1460.12
1477.11
1491.75
1503.94
1513.79
1521.49
1526.38
1529.28
1530.28
1528.68
1524.84
1518.71
1510.31
1499.67
1486.76
1471.71
1454.59
1435.46
1414.4
1391.52
1366.91
1340.66
1312.9
1283.75
1253.32
1221.73
1189.13
1155.63
1121.3
1086.38
1050.97
1015.25
979.321
943.315
907.369
871.609
836.157
801.126
766.629
732.767
699.646
667.365
636.038
605.796
576.834
552.073
554.868
574.388
595.184
616.024
636.911
657.863
678.881
699.945
721.023
742.076
763.056
783.893
804.507
824.786
844.584
863.671
881.731
898.089
912.231
919.815
925.477
875.323
0.423512
0.315328
0.269365
0.257748
0.267221
0.290768
0.324117
0.364338
0.409216
0.456977
0.50623
0.555939
0.605484
0.654491
0.702946
0.751142
0.79972
0.849662
0.902435
0.960121
1.02572
1.10329
1.19746
1.31011
1.44036
1.58714
1.74997
1.92894
2.12468
2.3382
2.57088
2.8243
3.10039
3.40122
3.72919
4.08685
4.47705
4.90277
5.36741
5.87454
6.42819
7.03262
7.69261
8.41322
9.20005
10.059
10.9968
12.0202
13.1367
14.3543
15.6812
17.126
18.6979
20.4056
22.2583
24.2655
26.4394
28.7912
31.3324
34.0739
37.0272
40.2031
43.6126
47.266
51.1731
55.3433
59.785
64.5056
69.5118
74.809
80.4013
86.2917
92.4817
98.9715
105.759
112.842
120.213
127.865
135.788
143.974
152.41
161.086
169.987
179.098
188.401
197.879
207.51
217.276
227.156
237.133
247.186
257.289
267.419
277.553
287.668
297.739
307.744
317.658
327.458
337.12
346.62
355.936
365.042
373.913
382.527
390.861
398.895
406.61
413.985
421
427.641
433.886
439.688
445.036
449.975
454.653
459.059
462.973
466.367
469.339
471.856
473.832
475.316
476.292
476.76
476.719
476.165
475.107
473.548
471.495
468.954
465.935
462.444
458.51
454.134
449.335
444.132
438.544
432.59
426.288
419.641
412.709
405.505
398.069
390.416
382.576
374.579
366.455
358.232
349.941
341.61
333.269
324.949
316.683
308.513
300.497
292.802
286.471
286.395
290.418
295.589
300.842
306.096
311.33
316.536
321.709
326.845
331.931
336.956
341.904
346.762
351.506
356.11
360.535
364.732
368.597
372.103
374.567
377.094
374.389
0.604042
0.432691
0.343234
0.299368
0.282995
0.284446
0.29804
0.320385
0.349084
0.382544
0.419657
0.45966
0.502062
0.546609
0.593291
0.642312
0.69412
0.74939
0.809083
0.87443
0.946965
1.02838
1.12029
1.22374
1.33919
1.46686
1.60705
1.76022
1.92708
2.10851
2.30562
2.51967
2.7521
3.00446
3.27849
3.57605
3.89918
4.25003
4.63095
5.04443
5.49316
5.97998
6.50793
7.08021
7.70023
8.37156
9.09824
9.88429
10.7338
11.651
12.6402
13.706
14.8528
16.085
17.4072
18.8239
20.3399
21.9593
23.6865
25.5253
27.4795
29.5526
31.7478
34.0678
36.5151
39.0916
41.7991
44.6387
47.6113
50.7172
53.9564
57.3287
60.8333
64.4693
68.236
72.1295
76.147
80.2849
84.5403
88.9099
93.39
97.977
102.667
107.454
112.335
117.304
122.356
127.484
132.685
137.953
143.282
148.662
154.088
159.553
165.049
170.568
176.103
181.644
187.184
192.713
198.222
203.702
209.141
214.53
219.858
225.117
230.296
235.383
240.369
245.238
249.982
254.609
259.129
263.501
267.733
271.836
275.79
279.55
283.113
286.487
289.651
292.586
295.293
297.762
299.989
301.967
303.69
305.153
306.356
307.294
307.966
308.365
308.472
308.335
307.921
307.232
306.28
305.067
303.597
301.873
299.895
297.682
295.24
292.586
289.725
286.669
283.431
280.024
276.463
272.762
268.937
265.005
260.983
256.892
252.76
248.634
244.645
241.301
240.119
240.587
241.756
243.085
244.428
245.747
247.028
248.264
249.462
250.61
251.706
252.748
253.735
254.663
255.532
256.338
257.084
257.771
258.437
259.047
260.011
261.116
0.867775
0.591783
0.448231
0.372962
0.336425
0.323926
0.327442
0.342275
0.365545
0.395368
0.430534
0.470254
0.514048
0.561665
0.613072
0.668414
0.728027
0.792418
0.862278
0.938452
1.02194
1.11373
1.21476
1.32583
1.44763
1.58074
1.72578
1.88345
2.05458
2.24009
2.4411
2.65881
2.89451
3.1496
3.42562
3.72421
4.04713
4.39622
4.77345
5.18088
5.6207
6.09516
6.60662
7.15745
7.75003
8.3865
9.06836
9.79868
10.5808
11.4175
12.3116
13.2659
14.283
15.3654
16.5155
17.7357
19.0293
20.3985
21.8451
23.3711
24.9785
26.6691
28.4447
30.3068
32.2572
34.2972
36.4281
38.6514
40.968
43.3792
45.886
48.4892
51.1895
53.9878
56.8842
59.879
62.9719
66.163
69.4518
72.8382
76.3214
79.9006
83.5746
87.342
91.201
95.1496
99.1855
103.306
107.509
111.79
116.146
120.573
125.065
129.619
134.228
138.888
143.593
148.336
153.111
157.91
162.727
167.553
172.381
177.203
182.01
186.795
191.551
196.267
200.936
205.557
210.124
214.622
219.045
223.379
227.619
231.76
235.787
239.684
243.442
247.056
250.514
253.804
256.921
259.856
262.602
265.151
267.498
269.634
271.55
273.244
274.716
275.958
276.965
277.75
278.303
278.603
278.676
278.513
278.123
277.501
276.648
275.571
274.278
272.778
271.074
269.176
267.091
264.83
262.404
259.824
257.1
254.248
251.28
248.214
245.074
241.898
238.783
236.009
234.178
233.181
232.624
232.218
231.84
231.446
231.018
230.548
230.014
229.436
228.818
228.163
227.474
226.755
226.01
225.25
224.487
223.751
223.09
222.596
222.53
223.089
1.16268
0.768981
0.568339
0.462704
0.409054
0.386775
0.384857
0.39703
0.41955
0.450129
0.487372
0.530431
0.578824
0.632318
0.690883
0.754641
0.82387
0.898966
0.980448
1.06892
1.16505
1.2696
1.38335
1.50705
1.64142
1.78716
1.94503
2.11581
2.30039
2.49969
2.71476
2.9467
3.19677
3.46626
3.75657
4.06912
4.40545
4.76712
5.1558
5.57318
6.02101
6.50112
7.01536
7.56564
8.15398
8.78254
9.45399
10.1703
10.9332
11.7448
12.6074
13.5233
14.4956
15.5255
16.6142
17.7624
18.9693
20.2392
21.5758
22.9812
24.4576
26.007
27.6315
29.3332
31.1143
32.9771
34.9236
36.956
39.0764
41.287
43.5896
45.9861
48.4784
51.068
53.7563
56.5446
59.4338
62.425
65.5188
68.7155
72.0153
75.4182
78.9235
82.5307
86.2384
90.0453
93.9496
97.9492
102.042
106.224
110.493
114.844
119.274
123.778
128.351
132.987
137.682
142.428
147.221
152.052
156.915
161.802
166.705
171.617
176.529
181.435
186.327
191.199
196.041
200.845
205.6
210.297
214.926
219.477
223.941
228.309
232.569
236.711
240.723
244.598
248.325
251.894
255.298
258.526
261.573
264.43
267.089
269.545
271.791
273.823
275.636
277.224
278.584
279.716
280.616
281.278
281.704
281.88
281.842
281.565
281.055
280.317
279.356
278.179
276.792
275.2
273.414
271.44
269.289
266.971
264.498
261.881
259.134
256.272
253.316
250.297
247.283
244.435
242.027
240.061
238.37
236.797
235.255
233.705
232.13
230.524
228.888
227.221
225.527
223.81
222.075
220.329
218.58
216.841
215.131
213.48
211.93
210.605
209.647
209.266
1.42752
0.932241
0.684506
0.555118
0.489383
0.461514
0.45768
0.470249
0.49477
0.528573
0.570071
0.618329
0.67283
0.733324
0.799771
0.872276
0.951078
1.03652
1.12905
1.22918
1.33751
1.45467
1.58135
1.71826
1.86611
2.02565
2.19766
2.38296
2.58245
2.79707
3.02783
3.27582
3.54219
3.82814
4.13496
4.46397
4.81654
5.19409
5.5981
6.0301
6.49165
6.98436
7.50991
8.07002
8.66649
9.30118
9.97603
10.6928
11.4534
12.2596
13.1132
14.016
14.9693
15.9756
17.0376
18.1583
19.3417
20.59
21.9056
23.2902
24.7458
26.2748
27.8801
29.5642
31.33
33.1802
35.1176
37.145
39.2651
41.4806
43.794
46.2079
48.7245
51.3462
54.0748
56.9122
59.86
62.9196
66.0922
69.3785
72.7792
76.2945
79.9243
83.6681
87.5251
91.494
95.5733
99.761
104.055
108.451
112.948
117.541
122.225
126.996
131.849
136.778
141.777
146.841
151.962
157.132
162.345
167.592
172.864
178.153
183.451
188.747
194.031
199.293
204.526
209.721
214.867
219.952
224.968
229.902
234.744
239.485
244.112
248.613
252.98
257.201
261.265
265.163
268.885
272.423
275.766
278.908
281.839
284.554
287.046
289.308
291.336
293.125
294.67
295.969
297.02
297.819
298.368
298.646
298.691
298.483
298.026
297.324
296.382
295.207
293.804
292.182
290.349
288.313
286.084
283.674
281.094
278.356
275.473
272.461
269.337
266.128
262.879
259.688
256.696
253.934
251.336
248.82
246.328
243.832
241.318
238.783
236.227
233.653
231.066
228.47
225.874
223.285
220.714
218.177
215.694
213.301
211.043
209.027
207.337
206.026
1.6155
1.05987
0.785658
0.643722
0.572571
0.543349
0.540367
0.555268
0.583185
0.621228
0.667709
0.721648
0.782507
0.85003
0.92417
1.00502
1.09279
1.18781
1.29046
1.40122
1.52064
1.64929
1.78782
1.9369
2.09724
2.26959
2.45472
2.65347
2.86673
3.09542
3.34054
3.60312
3.88427
4.18514
4.50693
4.85089
5.21833
5.6106
6.0291
6.47529
6.95067
7.45682
7.99537
8.568
9.1765
9.82267
10.5084
11.2356
12.0063
12.8224
13.6862
14.5997
15.5654
16.5858
17.6638
18.8025
20.0048
21.2732
22.6097
24.018
25.5017
27.064
28.7085
30.4385
32.2575
34.1691
36.1766
38.2835
40.4932
42.809
45.2341
47.7715
50.4242
53.1949
56.086
59.1
62.2387
65.5041
68.8975
72.4202
76.0728
79.8558
83.7693
87.8128
91.9856
96.2862
100.713
105.264
109.936
114.726
119.631
124.646
129.767
134.987
140.301
145.704
151.187
156.745
162.368
168.05
173.78
179.55
185.351
191.172
197.003
202.834
208.653
214.451
220.217
225.939
231.605
237.204
242.723
248.151
253.475
258.684
263.765
268.706
273.495
278.122
282.574
286.84
290.91
294.774
298.422
301.845
305.035
307.984
310.685
313.131
315.317
317.237
318.889
320.267
321.371
322.199
322.747
323.005
323
322.717
322.161
321.336
320.248
318.904
317.311
315.478
313.413
311.127
308.631
305.935
303.054
299.999
296.785
293.427
289.942
286.349
282.684
279.005
275.397
271.894
268.478
265.11
261.758
258.402
255.034
251.653
248.261
244.863
241.465
238.073
234.696
231.345
228.031
224.772
221.588
218.516
215.597
212.924
210.547
208.384
1.72591
1.15971
0.880027
0.734735
0.662266
0.633509
0.632113
0.649633
0.680991
0.723171
0.774409
0.833676
0.900408
0.974331
1.05538
1.14364
1.2393
1.34266
1.45408
1.57402
1.70298
1.84152
1.99024
2.1498
2.32091
2.50428
2.70072
2.91105
3.13613
3.37689
3.63431
3.90942
4.20329
4.51705
4.85189
5.20906
5.58985
5.99562
6.42779
6.88785
7.37737
7.89797
8.45139
9.03942
9.66396
10.327
11.0306
11.777
12.5684
13.4072
14.296
15.2374
16.2343
17.2897
18.4068
19.5889
20.8394
22.1615
23.5586
25.0346
26.5935
28.2391
29.9756
31.8069
33.7371
35.7703
37.9106
40.162
42.5284
45.0138
47.622
50.3565
53.2208
56.2181
59.3516
62.6239
66.0376
69.5947
73.2972
77.1465
81.1436
85.2891
89.5832
94.0256
98.6153
103.351
108.231
113.252
118.412
123.707
129.133
134.685
140.357
146.143
152.037
158.031
164.118
170.289
176.534
182.845
189.212
195.623
202.068
208.535
215.012
221.487
227.949
234.383
240.778
247.12
253.395
259.59
265.692
271.686
277.559
283.297
288.887
294.316
299.57
304.636
309.503
314.157
318.587
322.783
326.733
330.429
333.859
337.017
339.895
342.486
344.783
346.782
348.479
349.871
350.955
351.73
352.193
352.343
352.191
351.731
350.97
349.912
348.564
346.934
345.03
342.863
340.442
337.779
334.887
331.778
328.465
324.965
321.29
317.457
313.482
309.382
305.183
300.925
296.662
292.429
288.23
284.052
279.879
275.702
271.518
267.328
263.138
258.953
254.781
250.63
246.511
242.433
238.412
234.464
230.613
226.89
223.335
220.026
216.989
214.042
1.9013
1.31645
1.01637
0.855424
0.773003
0.739025
0.735613
0.753271
0.78631
0.831267
0.886104
0.949624
1.02116
1.10036
1.18713
1.28152
1.38369
1.49393
1.61257
1.74005
1.87685
2.02351
2.18063
2.34885
2.52887
2.72141
2.92726
3.14724
3.38225
3.6332
3.90109
4.18694
4.49186
4.817
5.16359
5.53291
5.92632
6.34525
6.79122
7.26583
7.77078
8.30785
8.87896
9.48611
10.1314
10.8172
11.5458
12.3197
13.1416
14.0143
14.9409
15.9244
16.9681
18.0757
19.2506
20.4968
21.8181
23.2185
24.7022
26.2737
27.9373
29.6977
31.5596
33.5276
35.6065
37.801
40.1159
42.5559
45.1256
47.8296
50.6723
53.6579
56.7906
60.0741
63.512
67.1076
70.8639
74.7834
78.8682
83.1202
87.5405
92.1299
96.8885
101.816
106.911
112.173
117.598
123.184
128.928
134.825
140.871
147.058
153.382
159.834
166.407
173.092
179.881
186.762
193.727
200.762
207.857
215
222.177
229.375
236.58
243.778
250.955
258.096
265.186
272.209
279.15
285.994
292.725
299.327
305.785
312.084
318.209
324.145
329.877
335.392
340.675
345.713
350.494
355.006
359.237
363.177
366.816
370.145
373.156
375.842
378.197
380.216
381.896
383.233
384.226
384.873
385.174
385.132
384.75
384.023
382.966
381.583
379.881
377.87
375.559
372.961
370.087
366.95
363.563
359.943
356.103
352.06
347.83
343.428
338.871
334.175
329.362
324.461
319.51
314.543
309.573
304.603
299.631
294.654
289.676
284.699
279.732
274.782
269.858
264.97
260.129
255.348
250.64
246.025
241.524
237.168
232.991
229.06
225.384
221.715
2.70564
1.75935
1.29422
1.05063
0.925126
0.868733
0.854219
0.866471
0.897652
0.942903
0.999417
1.06556
1.14041
1.22348
1.31455
1.41362
1.52084
1.63643
1.76074
1.89417
2.0372
2.19037
2.35425
2.5295
2.71682
2.91693
3.13064
3.3588
3.6023
3.86212
4.13926
4.43481
4.74994
5.08584
5.44384
5.82531
6.23172
6.66464
7.12574
7.61679
8.13969
8.69646
9.28925
9.92035
10.5922
11.3074
12.0687
12.879
13.7414
14.6592
15.6359
16.675
17.7806
18.9565
20.2071
21.5367
22.9498
24.4512
26.0458
27.7386
29.5349
31.4398
33.4589
35.5975
37.8611
40.2553
42.7856
45.4574
48.2761
51.2469
54.3751
57.6655
61.1229
64.7516
68.5557
72.5392
76.7052
81.0567
85.5962
90.3254
95.2457
100.358
105.662
111.157
116.842
122.715
128.772
135.011
141.426
148.013
154.766
161.677
168.739
175.943
183.28
190.74
198.311
205.983
213.742
221.575
229.47
237.411
245.383
253.371
261.359
269.331
277.27
285.158
292.979
300.715
308.349
315.862
323.238
330.459
337.508
344.368
351.022
357.455
363.649
369.591
375.264
380.655
385.75
390.536
395.002
399.136
402.928
406.37
409.451
412.167
414.511
416.479
418.066
419.271
420.094
420.533
420.59
420.274
419.569
418.493
417.054
415.258
413.116
410.639
407.837
404.723
401.313
397.62
393.66
389.449
385.005
380.345
375.486
370.445
365.24
359.886
354.402
348.812
343.148
337.439
331.705
325.957
320.201
314.442
308.687
302.943
297.218
291.523
285.867
280.263
274.721
269.256
263.882
258.618
253.486
248.514
243.731
239.196
234.902
230.566
4.02504
2.45392
1.70409
1.31837
1.11816
1.02187
0.986627
0.98732
1.01257
1.0552
1.11113
1.17802
1.25453
1.33993
1.43386
1.53621
1.64708
1.76667
1.8953
2.03335
2.1813
2.33969
2.50911
2.69021
2.8837
3.09036
3.311
3.54652
3.79786
4.06604
4.35215
4.65734
4.98287
5.33006
5.70035
6.09525
6.51641
6.96556
7.4446
7.95552
8.50048
9.08178
9.7019
10.3634
11.0692
11.8223
12.6258
13.4831
14.3978
15.3737
16.4149
17.5255
18.7101
19.9733
21.32
22.7552
24.2844
25.9129
27.6465
29.491
31.4524
33.5367
35.7504
38.0995
40.5905
43.2297
46.0235
48.978
52.0996
55.394
58.8673
62.525
66.3723
70.4143
74.6555
79.0999
83.7513
88.6127
93.6865
98.9747
104.478
110.198
116.132
122.282
128.643
135.213
141.99
148.966
156.138
163.499
171.041
178.755
186.633
194.664
202.836
211.138
219.557
228.079
236.69
245.373
254.114
262.896
271.701
280.511
289.308
298.074
306.789
315.434
323.99
332.437
340.755
348.925
356.927
364.742
372.352
379.737
386.88
393.763
400.369
406.682
412.685
418.364
423.705
428.694
433.32
437.57
441.434
444.903
447.97
450.628
452.871
454.696
456.099
457.081
457.641
457.78
457.511
456.815
455.701
454.187
452.279
449.987
447.321
444.296
440.924
437.219
433.199
428.88
424.278
419.413
414.304
408.968
403.425
397.694
391.793
385.737
379.546
373.241
366.849
360.396
353.906
347.395
340.876
334.356
327.848
321.36
314.903
308.488
302.127
295.832
289.617
283.494
277.48
271.594
265.854
260.289
254.923
249.806
244.924
239.978
5.96645
3.42019
2.24483
1.65379
1.34741
1.19451
1.12852
1.11265
1.12797
1.1651
1.21822
1.28402
1.36062
1.44694
1.54245
1.64691
1.76034
1.88291
2.01489
2.15669
2.30876
2.47166
2.64599
2.83243
3.03173
3.2447
3.47222
3.71523
3.97476
4.25191
4.54789
4.86395
5.20149
5.56199
5.94705
6.35839
6.79787
7.26748
7.76937
8.30585
8.8794
9.49268
10.1485
10.8501
11.6005
12.4033
13.2623
14.1813
15.1646
16.2165
17.3419
18.5456
19.8329
21.2091
22.68
24.2514
25.9297
27.7211
29.6322
31.6698
33.8408
36.1523
38.6113
41.2252
44.0011
46.9462
50.0677
53.3727
56.868
60.5603
64.456
68.5612
72.8816
77.4225
82.1886
87.1842
92.4129
97.8775
103.58
109.522
115.705
122.127
128.787
135.684
142.815
150.174
157.757
165.557
173.568
181.782
190.188
198.776
207.536
216.454
225.518
234.712
244.023
253.433
262.926
272.485
282.09
291.724
301.365
310.995
320.592
330.135
339.604
348.976
358.23
367.345
376.298
385.069
393.636
401.978
410.075
417.908
425.457
432.704
439.63
446.218
452.453
458.318
463.799
468.884
473.559
477.813
481.637
485.021
487.96
490.446
492.475
494.045
495.153
495.802
495.991
495.738
495.021
493.845
492.23
490.183
487.716
484.84
481.57
477.918
473.902
469.538
464.843
459.836
454.538
448.966
443.144
437.09
430.825
424.37
417.743
410.962
404.045
397.014
389.893
382.706
375.478
368.229
360.973
353.724
346.495
339.297
332.143
325.046
318.016
311.069
304.217
297.474
290.857
284.382
278.071
271.947
266.03
260.365
254.932
249.436
8.72065
4.71157
2.92791
2.05609
1.609
1.38219
1.2761
1.23869
1.24061
1.26974
1.31813
1.38131
1.45674
1.54295
1.63917
1.74503
1.86044
1.98553
2.12056
2.2659
2.42204
2.58955
2.76905
2.96129
3.16706
3.38723
3.62278
3.87475
4.14427
4.43258
4.74103
5.07106
5.42424
5.80229
6.20703
6.64047
7.10475
7.60221
8.13536
8.7069
9.31976
9.97706
10.6822
11.4387
12.2506
13.1219
14.0569
15.0605
16.1376
17.2933
18.5333
19.8633
21.2895
22.8183
24.4563
26.2105
28.0881
30.0964
32.2432
34.5362
36.9833
39.5925
42.372
45.3299
48.4742
51.8129
55.3539
59.1048
63.0731
67.2657
71.6895
76.3506
81.2549
86.4073
91.8125
97.4743
103.396
109.579
116.025
122.735
129.707
136.941
144.433
152.181
160.178
168.419
176.897
185.604
194.53
203.665
212.998
222.516
232.204
242.049
252.034
262.143
272.358
282.661
293.033
303.453
313.901
324.355
334.794
345.194
355.534
365.79
375.939
385.958
395.823
405.51
414.997
424.261
433.279
442.029
450.49
458.642
466.464
473.937
481.043
487.765
494.087
499.992
505.466
510.498
515.074
519.185
522.822
525.975
528.641
530.813
532.491
533.67
534.349
534.536
534.249
533.46
532.175
530.418
528.196
525.519
522.4
518.854
514.897
510.546
505.817
500.73
495.305
489.562
483.521
477.206
470.638
463.839
456.832
449.637
442.274
434.763
427.123
419.375
411.54
403.644
395.71
387.759
379.809
371.876
363.973
356.115
348.314
340.584
332.938
325.389
317.951
310.639
303.469
296.456
289.621
282.984
276.562
270.396
264.46
258.485
12.547
6.40204
3.77146
2.52697
1.90005
1.58121
1.426
1.36138
1.3479
1.36696
1.40924
1.46884
1.54246
1.62818
1.72495
1.83225
1.94989
2.07795
2.21665
2.3664
2.52768
2.7011
2.88737
3.08729
3.30175
3.53174
3.77835
4.04279
4.32637
4.63052
4.95681
5.30694
5.68277
6.08632
6.5198
6.98557
7.48624
8.0246
8.60368
9.22676
9.89737
10.6193
11.3967
12.2338
13.1354
14.1065
15.1524
16.2788
17.4916
18.7972
20.2022
21.7135
23.3384
25.0846
26.9597
28.9721
31.13
33.4421
35.917
38.5636
41.3907
44.4075
47.6227
51.0451
54.6834
58.5461
62.6413
66.9768
71.56
76.3978
81.4966
86.862
92.4992
98.4124
104.605
111.08
117.838
124.881
132.208
139.817
147.707
155.872
164.309
173.012
181.973
191.184
200.635
210.316
220.214
230.318
240.612
251.082
261.711
272.482
283.378
294.378
305.462
316.611
327.803
339.015
350.225
361.409
372.543
383.604
394.566
405.405
416.096
426.614
436.935
447.035
456.889
466.473
475.764
484.74
493.379
501.66
509.563
517.07
524.161
530.821
537.033
542.783
548.056
552.842
557.13
560.91
564.175
566.917
569.135
570.822
571.984
572.612
572.707
572.314
571.372
569.911
567.948
565.491
562.551
559.142
555.279
550.979
546.259
541.138
535.637
529.776
523.576
517.06
510.249
503.169
495.841
488.29
480.539
472.61
464.523
456.301
447.961
439.525
431.014
422.452
413.862
405.266
396.681
388.125
379.614
371.161
362.781
354.488
346.293
338.212
330.258
322.445
314.787
307.302
300.005
292.918
286.052
279.447
273.068
266.695
17.8034
8.59191
4.80029
3.07024
2.2182
1.78793
1.57476
1.47847
1.44786
1.45582
1.49156
1.54764
1.61985
1.70581
1.80416
1.91421
2.03567
2.16857
2.31314
2.4698
2.63912
2.82177
3.01857
3.23046
3.45848
3.70382
3.9678
4.25184
4.55757
4.88672
5.24123
5.62319
6.03493
6.47896
6.95802
7.47511
8.03348
8.63667
9.2885
9.9931
10.7549
11.5787
12.4697
13.4333
14.4754
15.6023
16.8207
18.1376
19.5605
21.097
22.7551
24.5434
26.4704
28.5452
30.7768
33.1749
35.7489
38.5084
41.4632
44.6229
47.9971
51.5951
55.4261
59.4991
63.8225
68.4044
73.2523
78.3732
83.7735
89.4587
95.4338
101.703
108.269
115.134
122.3
129.767
137.534
145.599
153.958
162.608
171.544
180.758
190.243
199.99
209.989
220.229
230.697
241.38
252.263
263.331
274.568
285.954
297.473
309.104
320.828
332.622
344.465
356.334
368.207
380.059
391.866
403.604
415.246
426.769
438.146
449.352
460.362
471.149
481.69
491.959
501.932
511.585
520.895
529.84
538.398
546.549
554.275
561.557
568.376
574.719
580.57
585.916
590.745
595.047
598.812
602.033
604.706
606.822
608.389
609.388
609.852
609.748
609.128
607.919
606.185
603.927
601.153
597.876
594.109
589.869
585.173
580.041
574.491
568.545
562.225
555.554
548.552
541.245
533.656
525.809
517.731
509.444
500.972
492.339
483.567
474.676
465.686
456.618
447.493
438.333
429.16
419.996
410.858
401.764
392.73
383.772
374.901
366.133
357.48
348.955
340.572
332.344
324.284
316.409
308.733
301.275
294.043
287.077
280.331
273.655
25.2655
11.5201
6.09054
3.71108
2.57238
2.00583
1.72448
1.59251
1.54347
1.54075
1.57095
1.62523
1.69834
1.78733
1.89051
2.00701
2.13648
2.27894
2.43467
2.6042
2.78823
2.98762
3.2034
3.43676
3.68906
3.96182
4.25676
4.57576
4.92095
5.29464
5.6994
6.13803
6.61364
7.1296
7.68962
8.29774
8.95836
9.67622
10.4565
11.3047
12.2268
13.2292
14.3186
15.5024
16.7881
18.1839
19.6986
21.3413
23.1216
25.049
27.1333
29.3844
31.8125
34.4278
37.2409
40.262
43.5015
46.9694
50.6755
54.6293
58.8399
63.3158
68.065
73.095
78.4123
84.0229
89.9319
96.1438
102.662
109.488
116.625
124.073
131.832
139.899
148.273
156.95
165.925
175.193
184.746
194.577
204.677
215.036
225.642
236.484
247.549
258.822
270.288
281.931
293.735
305.681
317.75
329.925
342.183
354.504
366.866
379.247
391.624
403.973
416.271
428.493
440.615
452.611
464.456
476.125
487.592
498.832
509.821
520.533
530.943
541.028
550.765
560.13
569.101
577.659
585.781
593.45
600.648
607.359
613.566
619.257
624.42
629.042
633.111
636.625
639.574
641.95
643.761
644.98
645.653
645.709
645.281
644.228
642.613
640.449
637.754
634.535
630.801
626.569
621.855
616.677
611.057
605.013
598.567
591.742
584.562
577.053
569.234
561.13
552.767
544.17
535.365
526.377
517.228
507.943
498.543
489.048
479.48
469.858
460.202
450.533
440.871
431.236
421.647
412.119
402.67
393.312
384.059
374.925
365.92
357.058
348.351
339.813
331.454
323.29
315.333
307.6
300.096
292.861
285.836
278.964
35.5651
15.3298
7.65733
4.43623
2.94697
2.22284
1.8677
1.70056
1.63542
1.62659
1.65652
1.715
1.79567
1.89496
2.01092
2.14257
2.28962
2.45219
2.6308
2.82624
3.03961
3.27217
3.52538
3.80097
4.10089
4.42738
4.78295
5.17039
5.59281
6.05364
6.55666
7.10603
7.70634
8.36259
9.08027
9.86529
10.7241
11.6636
12.6912
13.8149
15.043
16.3844
17.8482
19.4443
21.1829
23.0745
25.1305
27.3633
29.7866
32.4111
35.2472
38.3052
41.5957
45.129
48.915
52.9631
57.2824
61.8809
66.766
71.9443
77.4214
83.2023
89.2907
95.6895
102.401
109.425
116.763
124.413
132.374
140.643
149.216
158.088
167.254
176.708
186.443
196.451
206.722
217.247
228.014
239.014
250.232
261.657
273.275
285.072
297.032
309.139
321.377
333.729
346.175
358.699
371.279
383.898
396.533
409.164
421.77
434.328
446.816
459.211
471.491
483.631
495.608
507.398
518.977
530.321
541.405
552.206
562.701
572.867
582.681
592.12
601.162
609.788
617.977
625.711
632.972
639.742
646.008
651.756
656.969
661.638
665.758
669.315
672.295
674.711
676.549
677.796
678.489
678.541
678.122
677.066
675.44
673.259
670.528
667.259
663.476
659.181
654.39
649.123
643.397
637.234
630.653
623.679
616.332
608.638
600.617
592.265
583.639
574.765
565.671
556.382
546.92
537.311
527.578
517.743
507.827
497.85
487.83
477.788
467.741
457.707
447.707
437.756
427.872
418.069
408.362
398.765
389.288
379.945
370.746
361.702
352.824
344.123
335.611
327.298
319.197
311.322
303.673
296.297
289.106
282.177
48.8157
19.9405
9.41576
5.18937
3.30979
2.42356
2.00059
1.80753
1.73647
1.73103
1.77168
1.84609
1.94664
2.06934
2.21222
2.37447
2.55608
2.7576
2.98006
3.22484
3.49367
3.78862
4.11215
4.46706
4.85654
5.28422
5.75417
6.2709
6.83937
7.46509
8.15413
8.91315
9.74945
10.6709
11.6862
12.8046
14.0357
15.3902
16.879
18.5137
20.3061
22.2681
24.4121
26.7507
29.2971
32.064
35.0643
38.3116
41.818
45.6002
49.6658
54.0209
58.6722
63.6264
68.8888
74.4641
80.3553
86.5648
93.0933
99.9406
107.105
114.585
122.376
130.473
138.873
147.569
156.553
165.819
175.358
185.162
195.222
205.529