/*--------------------------------*- C++ -*----------------------------------*\
| =========                 |                                                 |
| \\      /  F ield         | OpenFOAM: The Open Source CFD Toolbox           |
|  \\    /   O peration     | Version:  2412                                  |
|   \\  /    A nd           | Website:  www.openfoam.com                      |
|    \\/     M anipulation  |                                                 |
\*---------------------------------------------------------------------------*/
FoamFile
{
    version     2.0;
    format      ascii;
    arch        "LSB;label=32;scalar=64";
    class       volScalarField;
    location    "302";
    object      k;
}
// * * * * * * * * * * * * * * * * * * * * * * * * * * * * * * * * * * * * * //

dimensions      [0 2 -2 0 0 0 0];

internalField   nonuniform List<scalar> 
12225
(
16.4737
17.882
14.6423
11.1483
9.25792
8.14667
7.36643
6.78443
6.35112
6.02572
5.7775
5.58724
5.44365
5.33908
5.27145
5.2371
5.24544
5.08328
3.58991
6.10228
5.80134
5.00985
4.24042
3.71305
3.33813
3.05952
2.84829
2.68607
2.55959
2.45963
2.38054
2.3174
2.26824
2.23085
2.2107
2.13248
0.644505
1.62832
2.03643
2.05491
2.02036
1.94067
1.84462
1.75381
1.67229
1.60094
1.53929
1.48633
1.44127
1.40151
1.36761
1.33729
1.30712
1.27472
0.411735
0.509824
0.694502
0.787234
0.844104
0.881191
0.90474
0.919097
0.927464
0.930237
0.929397
0.926837
0.921902
0.915017
0.906623
0.898515
0.882856
0.873591
0.383767
0.384533
0.394869
0.405843
0.416598
0.429107
0.441901
0.455276
0.468899
0.482497
0.494735
0.506884
0.516665
0.526212
0.532319
0.538545
0.540112
0.541939
0.383368
0.385009
0.381497
0.370738
0.355869
0.341838
0.330398
0.321787
0.316627
0.313335
0.313427
0.314235
0.31608
0.319389
0.321847
0.325607
0.327379
0.330547
0.380907
0.388077
0.388983
0.38432
0.375771
0.362026
0.347857
0.333792
0.322145
0.311735
0.303225
0.295445
0.289377
0.283842
0.279983
0.27608
0.273802
0.27101
0.37739
0.386352
0.390584
0.390352
0.3882
0.382932
0.375787
0.366903
0.357967
0.347993
0.339419
0.330486
0.323377
0.315653
0.310221
0.30373
0.299974
0.294561
0.375414
0.381497
0.387087
0.389347
0.38925
0.38817
0.385676
0.38179
0.377755
0.372602
0.367906
0.36228
0.357673
0.352063
0.348014
0.34268
0.339484
0.334442
0.374647
0.377692
0.381462
0.38474
0.386387
0.386675
0.386279
0.38511
0.38349
0.381166
0.37895
0.376058
0.373581
0.370424
0.367992
0.364764
0.362595
0.359333
0.374517
0.375315
0.376948
0.379482
0.381425
0.382539
0.383322
0.383266
0.382911
0.3821
0.381145
0.379804
0.378549
0.376923
0.375517
0.373739
0.372307
0.370431
0.374177
0.37395
0.374403
0.375617
0.377013
0.378122
0.379056
0.379561
0.379762
0.379657
0.379367
0.37881
0.378155
0.377281
0.376428
0.375403
0.374412
0.373295
0.374087
0.372876
0.372727
0.372944
0.373475
0.374147
0.374826
0.375363
0.375727
0.375892
0.375857
0.375739
0.375485
0.375081
0.374588
0.374002
0.373321
0.37263
0.374001
0.372322
0.371372
0.370914
0.370757
0.370783
0.370879
0.371047
0.371191
0.371273
0.371253
0.371191
0.371045
0.370828
0.37051
0.370167
0.369678
0.369263
0.373919
0.37199
0.370555
0.369556
0.36882
0.368271
0.367847
0.367513
0.367222
0.366953
0.366675
0.366394
0.366083
0.365769
0.36539
0.365035
0.364555
0.364193
0.373864
0.371774
0.370062
0.36871
0.367598
0.366652
0.365822
0.365081
0.364393
0.363748
0.363123
0.362526
0.361927
0.361358
0.360762
0.360216
0.359594
0.359091
0.373832
0.37165
0.369779
0.368217
0.366878
0.36569
0.364608
0.363606
0.362655
0.361747
0.360864
0.360012
0.359174
0.358369
0.357563
0.356805
0.35602
0.355324
0.373821
0.371601
0.369659
0.367994
0.366536
0.365221
0.364006
0.362864
0.361774
0.360722
0.3597
0.358707
0.357739
0.356798
0.355879
0.354991
0.354122
0.353289
0.373832
0.371631
0.369701
0.368041
0.366579
0.365253
0.364022
0.36286
0.361747
0.36067
0.359624
0.358605
0.357613
0.356647
0.35571
0.354798
0.35392
0.353061
0.373871
0.371765
0.369965
0.368456
0.367149
0.365971
0.364885
0.363865
0.362891
0.361944
0.361021
0.360116
0.359233
0.358365
0.357521
0.356688
0.35589
0.355089
0.373942
0.372022
0.370489
0.369302
0.36832
0.367456
0.36667
0.365939
0.365216
0.36449
0.363744
0.362996
0.362238
0.361462
0.360673
0.359869
0.359072
0.358251
0.374061
0.372522
0.371541
0.370983
0.370569
0.370173
0.369787
0.369387
0.368839
0.368178
0.367379
0.366491
0.365489
0.364457
0.363353
0.362247
0.361083
0.359944
0.374224
0.373598
0.373719
0.374008
0.374023
0.373873
0.373506
0.372775
0.37165
0.370312
0.368701
0.367012
0.365084
0.363143
0.360984
0.358915
0.356642
0.354554
0.374566
0.375736
0.377144
0.377521
0.37711
0.376072
0.374237
0.371715
0.368421
0.364784
0.360719
0.356454
0.351634
0.346965
0.342007
0.337552
0.332734
0.328635
0.375612
0.378636
0.379427
0.378091
0.375163
0.370141
0.363103
0.355074
0.346171
0.337443
0.328641
0.320662
0.313313
0.306722
0.300647
0.295019
0.290032
0.285421
0.377756
0.379642
0.37856
0.373893
0.365819
0.35613
0.345688
0.335988
0.327507
0.321052
0.315931
0.312893
0.310626
0.310548
0.311071
0.312699
0.315439
0.317997
0.384797
0.396081
0.424619
0.455119
0.477781
0.496563
0.512355
0.527024
0.542445
0.557162
0.573689
0.588831
0.605835
0.620668
0.637442
0.651666
0.667921
0.680831
0.508213
0.759292
1.11876
1.30364
1.3869
1.42348
1.44092
1.45162
1.45232
1.45059
1.44627
1.43822
1.4293
1.41858
1.40823
1.39652
1.38633
1.37403
1.57451
4.09665
4.77621
4.60829
4.25722
3.91211
3.61905
3.36924
3.15431
2.97062
2.81495
2.68253
2.56987
2.47305
2.38972
2.31689
2.25348
2.1965
10.5954
15.6934
14.541
12.0068
10.1369
8.9557
8.11788
7.46098
6.93071
6.49921
6.14418
5.84804
5.59807
5.38457
5.2002
5.03961
4.89757
4.77366
0.00373757
0.00407134
0.00454158
0.00515421
0.00588869
0.00671394
0.0075953
0.00849884
0.00939441
0.0102576
0.0110706
0.0118226
0.012509
0.0131305
0.0136923
0.014203
0.0146739
0.0151194
0.0155581
0.0160167
0.0165383
0.0172
0.0181508
0.0194021
0.0208539
0.0224564
0.024186
0.0260333
0.0279969
0.03008
0.0322887
0.034631
0.0371166
0.039756
0.0425612
0.0455448
0.0487197
0.0520997
0.0556992
0.059534
0.0636205
0.0679768
0.0726216
0.0775749
0.0828576
0.0884923
0.0945021
0.100912
0.107746
0.115031
0.122794
0.131061
0.139858
0.149212
0.159144
0.169681
0.180857
0.192702
0.205246
0.218515
0.232534
0.247327
0.262915
0.279318
0.296551
0.314629
0.333562
0.353357
0.374016
0.395538
0.417918
0.441147
0.465211
0.490091
0.515764
0.542204
0.569375
0.597236
0.625747
0.65486
0.684527
0.714695
0.745308
0.776308
0.807634
0.839221
0.871002
0.902902
0.934849
0.966776
0.998619
1.03031
1.06176
1.0929
1.12366
1.15396
1.18372
1.21289
1.24138
1.26912
1.29605
1.32211
1.34721
1.37131
1.39433
1.4162
1.43687
1.45629
1.4744
1.49116
1.50651
1.52041
1.5328
1.54358
1.55266
1.55999
1.56565
1.56983
1.57203
1.57284
1.57236
1.57007
1.56624
1.56084
1.55387
1.54536
1.53526
1.52367
1.51061
1.49612
1.48023
1.46301
1.44449
1.42473
1.4038
1.38174
1.35862
1.33452
1.30949
1.28362
1.25692
1.22955
1.20155
1.17305
1.14411
1.1148
1.08522
1.05545
1.02559
0.99572
0.965919
0.936275
0.906876
0.877814
0.849196
0.821152
0.793869
0.770023
0.771174
0.788226
0.806238
0.824014
0.841569
0.858926
0.876093
0.893059
0.909804
0.926303
0.942522
0.958414
0.973923
0.98897
1.00345
1.0172
1.03
1.04134
1.05085
1.05527
1.05818
1.01824
0.0042597
0.00440209
0.00482982
0.00546136
0.00624218
0.00713143
0.0080964
0.00911048
0.010153
0.0112085
0.0122672
0.0133233
0.0143748
0.015423
0.0164725
0.0175297
0.0186032
0.019702
0.0208382
0.0220267
0.0232877
0.0246473
0.0261339
0.0277553
0.0295011
0.03136
0.0333259
0.0353963
0.0375727
0.0398581
0.042258
0.0447781
0.0474258
0.0502086
0.0531359
0.0562184
0.0594648
0.062883
0.066483
0.070275
0.0742703
0.0784805
0.0829184
0.0875964
0.0925286
0.0977286
0.103211
0.108991
0.115085
0.121507
0.128275
0.135403
0.142906
0.150792
0.159063
0.167702
0.176757
0.186246
0.196183
0.206579
0.217448
0.228798
0.240639
0.252979
0.265824
0.27918
0.29305
0.307436
0.32234
0.337762
0.353699
0.370149
0.387108
0.404572
0.422536
0.440994
0.459938
0.47934
0.499186
0.519463
0.540154
0.561247
0.582725
0.604576
0.62678
0.649322
0.672181
0.695341
0.718781
0.742487
0.766439
0.79061
0.814978
0.839522
0.864219
0.889045
0.913978
0.93899
0.964057
0.98915
1.01424
1.03931
1.06431
1.08922
1.114
1.13862
1.16306
1.18727
1.21124
1.23493
1.25832
1.28141
1.30425
1.32657
1.34833
1.36949
1.39012
1.41021
1.42968
1.44857
1.46685
1.48443
1.50132
1.51749
1.53293
1.54762
1.56158
1.57472
1.58703
1.59848
1.60906
1.61876
1.62756
1.63544
1.6424
1.64843
1.65352
1.65767
1.66086
1.66314
1.66431
1.6646
1.66394
1.66244
1.66004
1.65676
1.65264
1.64771
1.642
1.63554
1.62836
1.62051
1.61201
1.60289
1.5932
1.58295
1.57225
1.56176
1.55503
1.55075
1.54597
1.54047
1.53431
1.52758
1.52034
1.51262
1.50445
1.49586
1.48688
1.47751
1.46778
1.45769
1.44725
1.43643
1.42522
1.41355
1.4013
1.38833
1.37449
1.33248
0.00539656
0.00536365
0.00582366
0.00662685
0.00766893
0.00887646
0.0101971
0.0115941
0.0130432
0.014529
0.0160432
0.0175821
0.0191467
0.0207398
0.0223664
0.0240317
0.0257424
0.0275065
0.0293329
0.0312317
0.0332149
0.0352949
0.037484
0.03979
0.0422169
0.044767
0.0474435
0.0502499
0.0531917
0.0562747
0.0595062
0.0628934
0.0664447
0.070168
0.0740716
0.0781628
0.082452
0.0869499
0.0916672
0.0966143
0.101802
0.107243
0.112947
0.118927
0.125196
0.131766
0.13865
0.14586
0.153411
0.161315
0.169586
0.17824
0.187293
0.196761
0.206667
0.217041
0.227873
0.239172
0.25095
0.263219
0.275992
0.289281
0.303097
0.317451
0.332354
0.347815
0.363844
0.380449
0.39764
0.415424
0.433807
0.452798
0.472401
0.492623
0.513468
0.534942
0.557046
0.579769
0.603106
0.627056
0.651613
0.676774
0.70253
0.728875
0.755797
0.783284
0.811322
0.839895
0.868988
0.898583
0.928657
0.959183
0.990135
1.02149
1.05321
1.08527
1.11764
1.15028
1.18315
1.21622
1.24944
1.28278
1.31618
1.3496
1.383
1.41632
1.44952
1.48254
1.51535
1.54787
1.58004
1.61178
1.64297
1.67367
1.70385
1.73345
1.76247
1.79086
1.81857
1.84557
1.87182
1.89724
1.92182
1.94551
1.96827
1.99008
2.01089
2.03067
2.04937
2.06697
2.08344
2.09875
2.11288
2.1258
2.1375
2.14798
2.15721
2.16519
2.1719
2.17733
2.18145
2.1843
2.1858
2.18619
2.18536
2.18332
2.18011
2.17577
2.17034
2.16384
2.15633
2.14784
2.13842
2.1281
2.11695
2.10502
2.09245
2.07977
2.06856
2.05823
2.04751
2.03601
2.02374
2.01077
1.99715
1.98293
1.96816
1.95288
1.93713
1.92094
1.90434
1.88736
1.87004
1.8524
1.83448
1.81633
1.79796
1.77979
1.76177
1.7243
0.00687043
0.0067027
0.00728894
0.00838556
0.00982407
0.0114849
0.0132856
0.0151731
0.0171167
0.0191001
0.0211172
0.023167
0.0252528
0.0273797
0.029554
0.0317831
0.0340749
0.0364378
0.038881
0.0414144
0.0440484
0.0467934
0.04966
0.052657
0.0557924
0.0590732
0.0625065
0.0660993
0.0698596
0.0737953
0.0779153
0.0822286
0.0867447
0.0914733
0.0964243
0.101608
0.107035
0.112718
0.118666
0.124893
0.131411
0.13823
0.145366
0.152829
0.160635
0.168797
0.177329
0.186245
0.195559
0.205286
0.215443
0.226045
0.237109
0.248654
0.260697
0.273255
0.28634
0.299964
0.314145
0.328897
0.344239
0.360187
0.376757
0.393967
0.411832
0.430368
0.449591
0.469517
0.490158
0.511528
0.533639
0.556502
0.580126
0.60452
0.629688
0.655635
0.682359
0.70986
0.738132
0.767171
0.796971
0.82752
0.858806
0.890816
0.923531
0.956932
0.990995
1.0257
1.06101
1.09691
1.13337
1.17034
1.20778
1.24567
1.28397
1.32262
1.36159
1.40083
1.44029
1.47993
1.51969
1.55952
1.59937
1.63918
1.6789
1.71846
1.75781
1.7969
1.83566
1.87403
1.91195
1.94935
1.98619
2.02243
2.05802
2.09293
2.12709
2.16046
2.19299
2.22462
2.2553
2.28499
2.31362
2.34115
2.36754
2.39276
2.41675
2.43948
2.4609
2.48099
2.49972
2.51705
2.53296
2.54743
2.56044
2.57198
2.58204
2.59061
2.59768
2.60324
2.60728
2.60976
2.61075
2.61036
2.60853
2.60529
2.60068
2.59473
2.5875
2.57903
2.56937
2.55857
2.54668
2.53376
2.51987
2.5051
2.48961
2.47381
2.45855
2.4436
2.42828
2.41223
2.39542
2.37785
2.3596
2.34071
2.32125
2.30125
2.28077
2.25985
2.23854
2.21689
2.19495
2.17278
2.15046
2.12812
2.10587
2.08428
2.06308
2.02901
0.0083501
0.00816965
0.00901124
0.0105241
0.0124652
0.0146616
0.0169987
0.0194093
0.0218601
0.0243379
0.0268411
0.0293735
0.0319426
0.0345569
0.0372258
0.0399592
0.042767
0.0456594
0.048647
0.0517404
0.0549506
0.0582881
0.0617637
0.0653874
0.0691689
0.0731172
0.0772417
0.0815513
0.0860555
0.0907638
0.0956863
0.100833
0.106215
0.111843
0.117728
0.123882
0.130317
0.137044
0.144076
0.151427
0.159109
0.167136
0.175523
0.184282
0.193429
0.202979
0.212948
0.223353
0.23421
0.245538
0.257356
0.269682
0.282536
0.295939
0.309911
0.324471
0.33964
0.355437
0.371883
0.389
0.40681
0.425335
0.444597
0.464617
0.485416
0.507012
0.529424
0.552671
0.576767
0.601728
0.627565
0.654288
0.681907
0.710425
0.739847
0.770172
0.801397
0.833518
0.866526
0.900412
0.935162
0.970761
1.00719
1.04443
1.08245
1.12123
1.16074
1.20095
1.24183
1.28333
1.32542
1.36806
1.4112
1.4548
1.49881
1.54318
1.58786
1.6328
1.67795
1.72324
1.76861
1.81402
1.85939
1.90467
1.94979
1.9947
2.03932
2.08359
2.12745
2.17084
2.21369
2.25593
2.29752
2.33839
2.37849
2.41777
2.45615
2.49359
2.53002
2.56539
2.59964
2.63271
2.66454
2.69508
2.72429
2.75211
2.77851
2.80344
2.82686
2.84873
2.86901
2.88769
2.90474
2.92013
2.93384
2.94586
2.95619
2.96482
2.97174
2.97694
2.98041
2.98209
2.98217
2.9806
2.9774
2.97261
2.96627
2.95843
2.94913
2.93844
2.9264
2.91308
2.89854
2.88285
2.86609
2.84833
2.82973
2.8106
2.79143
2.77216
2.75244
2.73203
2.71085
2.68891
2.66627
2.64298
2.6191
2.59469
2.56981
2.54452
2.51887
2.49294
2.4668
2.44053
2.41425
2.38815
2.3624
2.33761
2.31335
2.28028
0.00957476
0.00958676
0.0108454
0.0128989
0.0154296
0.0182132
0.0211097
0.0240457
0.0269914
0.0299404
0.032898
0.0358745
0.0388824
0.0419346
0.0450442
0.0482239
0.0514863
0.0548435
0.0583075
0.0618902
0.0656033
0.0694583
0.0734666
0.077639
0.0819864
0.0865193
0.0912481
0.096183
0.101335
0.106714
0.112331
0.118198
0.124327
0.130728
0.137415
0.1444
0.151696
0.159316
0.167275
0.175586
0.184265
0.193326
0.202787
0.212663
0.222971
0.233731
0.244961
0.25668
0.268911
0.281674
0.294992
0.308887
0.323383
0.338503
0.354271
0.370711
0.387846
0.405705
0.424312
0.443694
0.463878
0.484887
0.506746
0.529479
0.553107
0.577652
0.603133
0.629566
0.656969
0.685354
0.714732
0.745112
0.7765
0.808898
0.842307
0.876724
0.912144
0.948558
0.985956
1.02432
1.06364
1.10389
1.14506
1.1871
1.23
1.27373
1.31824
1.36351
1.4095
1.45616
1.50344
1.55131
1.59971
1.64859
1.69789
1.74757
1.79755
1.84779
1.89822
1.94878
1.99941
2.05002
2.10057
2.15097
2.20116
2.25108
2.30064
2.34979
2.39844
2.44653
2.49399
2.54074
2.58672
2.63187
2.67612
2.7194
2.76164
2.80278
2.84276
2.88151
2.91896
2.95506
2.98973
3.02294
3.05462
3.08472
3.11319
3.13999
3.16508
3.18842
3.20997
3.2297
3.24758
3.2636
3.27774
3.28998
3.30031
3.30874
3.31526
3.31987
3.32251
3.32325
3.32214
3.31919
3.31443
3.30791
3.29967
3.28976
3.27824
3.26518
3.25063
3.23467
3.21737
3.1988
3.17904
3.15817
3.13632
3.11372
3.09067
3.06723
3.04322
3.01849
2.993
2.96675
2.93979
2.91218
2.88399
2.85529
2.82615
2.79663
2.7668
2.73676
2.70658
2.67639
2.64632
2.6166
2.58745
2.55945
2.5321
2.49838
0.0103984
0.0108638
0.0127124
0.0154183
0.0186021
0.0220006
0.0254607
0.0289113
0.0323309
0.0357223
0.0390989
0.042478
0.045878
0.0493165
0.0528109
0.0563772
0.0600308
0.0637861
0.067657
0.0716567
0.0757983
0.080094
0.0845563
0.0891968
0.0940272
0.099059
0.104303
0.109772
0.115476
0.121427
0.127637
0.134118
0.140883
0.147945
0.155317
0.163013
0.171048
0.179437
0.188195
0.197339
0.206885
0.216852
0.227258
0.238122
0.249466
0.261311
0.273679
0.286594
0.300079
0.314161
0.328865
0.344218
0.360246
0.376977
0.394439
0.412662
0.431673
0.451504
0.472181
0.493734
0.51619
0.539575
0.563915
0.589234
0.615556
0.642902
0.671292
0.700742
0.731267
0.762881
0.795593
0.829411
0.86434
0.90038
0.937532
0.97579
1.01515
1.0556
1.09712
1.1397
1.18333
1.22797
1.2736
1.32019
1.36771
1.41613
1.46541
1.5155
1.56636
1.61795
1.67021
1.72309
1.77654
1.8305
1.88491
1.9397
1.99481
2.05017
2.10572
2.16138
2.21708
2.27275
2.32831
2.38368
2.43879
2.49356
2.5479
2.60175
2.65502
2.70763
2.75951
2.81057
2.86074
2.90995
2.95812
3.00518
3.05105
3.09567
3.13895
3.18083
3.22125
3.26012
3.2974
3.33302
3.36691
3.39903
3.42933
3.45775
3.48426
3.5088
3.53136
3.55189
3.57037
3.58678
3.60109
3.61331
3.62342
3.63141
3.63731
3.64108
3.64273
3.6423
3.6398
3.63527
3.62877
3.62034
3.61003
3.5979
3.58401
3.56844
3.55125
3.53253
3.51234
3.49078
3.46791
3.44383
3.41862
3.39247
3.3656
3.33808
3.30989
3.28094
3.25122
3.22074
3.18955
3.15772
3.12533
3.09244
3.05915
3.02552
2.99164
2.95761
2.92354
2.88955
2.85582
2.82258
2.79009
2.75887
2.72841
2.69305
0.0108668
0.0120348
0.0146045
0.0180299
0.0218948
0.0259125
0.0299256
0.0338703
0.0377357
0.0415345
0.0452892
0.0490246
0.0527653
0.0565348
0.0603547
0.0642451
0.0682245
0.07231
0.0765176
0.0808623
0.0853584
0.0900194
0.0948586
0.0998887
0.105122
0.110571
0.116248
0.122164
0.128333
0.134767
0.141478
0.148481
0.155788
0.163415
0.171375
0.179685
0.188361
0.19742
0.206879
0.216757
0.227074
0.23785
0.249107
0.260868
0.273156
0.285997
0.299415
0.313438
0.328094
0.34341
0.359417
0.376145
0.393623
0.411884
0.430957
0.450876
0.471671
0.493375
0.516017
0.539628
0.564236
0.589871
0.61656
0.644327
0.673197
0.703191
0.73433
0.766632
0.80011
0.834779
0.870648
0.907725
0.946014
0.985517
1.02623
1.06815
1.11127
1.15557
1.20105
1.24768
1.29544
1.34431
1.39426
1.44525
1.49725
1.55022
1.60412
1.6589
1.71451
1.77091
1.82802
1.88581
1.94419
2.00311
2.06251
2.1223
2.18242
2.2428
2.30335
2.36399
2.42466
2.48525
2.5457
2.6059
2.66579
2.72526
2.78424
2.84263
2.90035
2.95731
3.01342
3.0686
3.12276
3.17582
3.2277
3.27831
3.32758
3.37543
3.42178
3.46655
3.50967
3.55107
3.59068
3.62844
3.66429
3.69816
3.73001
3.75978
3.78744
3.81293
3.83622
3.85729
3.8761
3.89263
3.90687
3.91881
3.92845
3.93578
3.94082
3.94355
3.944
3.94217
3.93808
3.9318
3.92338
3.91288
3.90035
3.88586
3.86947
3.85127
3.83134
3.80975
3.7866
3.76196
3.73591
3.70854
3.67994
3.65024
3.6196
3.58816
3.55592
3.52289
3.48907
3.4545
3.41922
3.38332
3.34688
3.30996
3.27268
3.2351
3.19734
3.15949
3.12168
3.08406
3.04681
3.01018
2.97444
2.94004
2.90648
2.86914
0.0115868
0.0134194
0.0166405
0.0207351
0.0252493
0.0298606
0.0343996
0.0388064
0.0430794
0.047242
0.0513263
0.0553651
0.0593904
0.0634313
0.0675148
0.0716652
0.0759044
0.0802527
0.0847283
0.0893481
0.0941281
0.0990829
0.104227
0.109574
0.115136
0.120928
0.126962
0.13325
0.139808
0.146647
0.153782
0.161227
0.168998
0.177111
0.185581
0.194427
0.203666
0.213317
0.223401
0.233939
0.244952
0.256465
0.268502
0.281088
0.29425
0.308017
0.322416
0.337478
0.353234
0.369716
0.386955
0.404985
0.423839
0.443551
0.464154
0.485684
0.508174
0.531656
0.556165
0.581731
0.608387
0.636161
0.665083
0.695178
0.726473
0.758991
0.792752
0.827776
0.864078
0.901672
0.940568
0.980774
1.0223
1.06513
1.10929
1.15475
1.20151
1.24955
1.29887
1.34944
1.40123
1.45423
1.50839
1.56367
1.62005
1.67748
1.7359
1.79528
1.85554
1.91664
1.97851
2.04109
2.10431
2.16809
2.23236
2.29704
2.36204
2.4273
2.49272
2.55821
2.62369
2.68905
2.75421
2.81908
2.88356
2.94755
3.01095
3.07368
3.13563
3.1967
3.25681
3.31586
3.37375
3.43039
3.4857
3.53958
3.59196
3.64275
3.69185
3.73921
3.78472
3.82833
3.86997
3.90955
3.94703
3.98234
4.01542
4.04622
4.07471
4.10083
4.12456
4.14585
4.1647
4.18107
4.19496
4.20636
4.21526
4.22168
4.22563
4.2271
4.22613
4.22269
4.21682
4.20861
4.19812
4.1854
4.17053
4.15356
4.13459
4.11368
4.09093
4.06643
4.04026
4.01252
3.98329
3.95264
3.92066
3.88746
3.8532
3.81799
3.78191
3.745
3.70728
3.66882
3.62966
3.5899
3.54962
3.5089
3.46785
3.42656
3.38513
3.34369
3.30237
3.26133
3.22076
3.1809
3.14204
3.10457
3.06799
3.02842
0.0146612
0.0158326
0.0190904
0.0235816
0.0286267
0.0337702
0.0387887
0.0436114
0.0482426
0.0527159
0.0570733
0.0613568
0.0656058
0.069856
0.0741399
0.0784863
0.0829211
0.0874674
0.0921462
0.0969761
0.101975
0.107158
0.112542
0.11814
0.123966
0.130035
0.136361
0.142956
0.149837
0.157016
0.16451
0.172334
0.180504
0.189039
0.197956
0.207275
0.217015
0.227198
0.237847
0.248985
0.260637
0.272829
0.285587
0.298941
0.312921
0.327555
0.342878
0.358921
0.375717
0.393302
0.411711
0.430978
0.451141
0.472235
0.494297
0.517364
0.54147
0.566653
0.592946
0.620385
0.649001
0.678828
0.709895
0.742231
0.775863
0.810816
0.847112
0.884771
0.923811
0.964246
1.00609
1.04934
1.09402
1.14012
1.18763
1.23656
1.28689
1.33861
1.3917
1.44613
1.50189
1.55893
1.61723
1.67674
1.73742
1.79921
1.86207
1.92594
1.99076
2.05646
2.12297
2.19023
2.25814
2.32663
2.39562
2.46503
2.53475
2.6047
2.67479
2.74492
2.81499
2.88489
2.95453
3.0238
3.0926
3.16082
3.22836
3.29511
3.36098
3.42584
3.48961
3.55217
3.61343
3.67329
3.73166
3.78844
3.84354
3.89687
3.94835
3.99788
4.0454
4.09082
4.13408
4.17509
4.2138
4.25015
4.28408
4.31554
4.34448
4.37087
4.39467
4.41585
4.43439
4.45028
4.46351
4.47407
4.48196
4.4872
4.48982
4.4898
4.48722
4.48192
4.4741
4.46382
4.45113
4.43609
4.41877
4.39926
4.37763
4.35399
4.3284
4.30099
4.27183
4.24102
4.20865
4.1748
4.13954
4.10299
4.06529
4.02654
3.98687
3.94633
3.90499
3.8629
3.82015
3.77681
3.73298
3.68876
3.64424
3.59952
3.55474
3.51
3.46545
3.42126
3.37763
3.3348
3.29301
3.25265
3.21323
3.17145
0.0191111
0.0188883
0.021767
0.0264432
0.0319188
0.0375368
0.0429852
0.048172
0.0531051
0.0578293
0.0623979
0.0668631
0.0712725
0.0756692
0.0800911
0.084572
0.0891416
0.093826
0.0986487
0.10363
0.10879
0.114145
0.119711
0.125504
0.131539
0.13783
0.144392
0.151239
0.158388
0.165854
0.173653
0.181802
0.190321
0.199226
0.208539
0.218281
0.228474
0.239141
0.250308
0.261999
0.274243
0.287068
0.300503
0.31458
0.329331
0.34479
0.36099
0.377967
0.395759
0.414401
0.433931
0.454389
0.475812
0.498239
0.52171
0.546264
0.571939
0.598773
0.626803
0.656067
0.6866
0.718435
0.751605
0.786142
0.822073
0.859425
0.898222
0.938486
0.980234
1.02348
1.06824
1.11452
1.16233
1.21166
1.26252
1.31488
1.36875
1.42411
1.48093
1.53919
1.59886
1.6599
1.72227
1.78592
1.85081
1.91688
1.98408
2.05232
2.12156
2.19171
2.2627
2.33445
2.40686
2.47986
2.55335
2.62723
2.70141
2.77578
2.85024
2.92469
2.99902
3.07312
3.14687
3.22017
3.2929
3.36495
3.43621
3.50656
3.57589
3.64409
3.71104
3.77665
3.8408
3.90339
3.96433
4.0235
4.08082
4.13619
4.18953
4.24075
4.28976
4.33649
4.38087
4.42282
4.46228
4.4992
4.5335
4.56516
4.59411
4.62034
4.6438
4.66447
4.68233
4.69737
4.70959
4.71898
4.72557
4.72936
4.73038
4.72871
4.72419
4.7169
4.70698
4.69449
4.67948
4.66203
4.64222
4.62013
4.59585
4.56947
4.5411
4.51083
4.47876
4.44499
4.40961
4.37271
4.33436
4.29468
4.25378
4.2118
4.16884
4.12501
4.08038
4.03502
3.98902
3.94247
3.89546
3.8481
3.80048
3.75273
3.70495
3.65729
3.60987
3.56289
3.51653
3.47103
3.42661
3.38364
3.34163
3.29784
0.024853
0.0224668
0.0245582
0.0292132
0.03502
0.0410539
0.0468796
0.0523735
0.0575477
0.0624587
0.0671736
0.0717556
0.0762622
0.0807436
0.0852441
0.0898021
0.0944511
0.0992202
0.104135
0.109218
0.114489
0.119967
0.125668
0.13161
0.137806
0.144273
0.151026
0.158082
0.165455
0.173164
0.181226
0.189659
0.198484
0.20772
0.217391
0.227518
0.238127
0.249242
0.260892
0.273104
0.285908
0.299335
0.313418
0.32819
0.343686
0.359943
0.376997
0.394887
0.413652
0.433332
0.453968
0.475601
0.498273
0.522025
0.546899
0.572938
0.600182
0.628672
0.658449
0.689551
0.722017
0.755882
0.791182
0.827948
0.86621
0.905997
0.947334
0.990241
1.03474
1.08084
1.12856
1.1779
1.22887
1.28147
1.33568
1.39151
1.44892
1.50792
1.56845
1.63051
1.69405
1.75902
1.82539
1.8931
1.96209
2.03231
2.10368
2.17613
2.24958
2.32397
2.39919
2.47516
2.55179
2.62898
2.70662
2.78462
2.86287
2.94125
3.01966
3.09798
3.1761
3.2539
3.33125
3.40805
3.48417
3.55949
3.63388
3.70724
3.77944
3.85036
3.91989
3.98791
4.05432
4.11901
4.18186
4.24279
4.30169
4.35847
4.41304
4.46531
4.51519
4.56262
4.60751
4.64981
4.68944
4.72635
4.76048
4.7918
4.82026
4.84582
4.86847
4.88817
4.90492
4.91871
4.92955
4.93743
4.9424
4.94444
4.94367
4.94002
4.93335
4.92391
4.91175
4.89694
4.87955
4.85965
4.83733
4.81267
4.78578
4.75675
4.72568
4.69268
4.65786
4.62131
4.58313
4.54341
4.50224
4.45972
4.41596
4.37109
4.32525
4.27853
4.23102
4.18282
4.13402
4.08469
4.03496
3.98491
3.93465
3.88431
3.83399
3.78385
3.73401
3.68466
3.63599
3.58821
3.54155
3.49632
3.45208
3.40661
0.0320184
0.026569
0.0274185
0.031823
0.0378465
0.0442272
0.0503695
0.0561074
0.0614564
0.0664869
0.0712811
0.0759155
0.0804575
0.0849655
0.08949
0.0940739
0.0987542
0.103562
0.108526
0.113669
0.119011
0.124573
0.130372
0.136424
0.142745
0.149352
0.156262
0.16349
0.171055
0.178974
0.187267
0.195954
0.205057
0.214597
0.224599
0.235089
0.246093
0.257638
0.269756
0.282476
0.295831
0.309854
0.324583
0.340051
0.356299
0.373364
0.391287
0.41011
0.429875
0.450624
0.472403
0.495256
0.519227
0.544362
0.570706
0.598303
0.627198
0.657434
0.689054
0.722099
0.756608
0.79262
0.830169
0.869291
0.910014
0.952367
0.996374
1.04206
1.08943
1.13851
1.1893
1.24181
1.29604
1.35199
1.40963
1.46897
1.52997
1.59261
1.65686
1.72268
1.79003
1.85885
1.92911
2.00073
2.07365
2.1478
2.22311
2.29949
2.37687
2.45515
2.53424
2.61404
2.69444
2.77536
2.85666
2.93826
3.02002
3.10183
3.18358
3.26514
3.3464
3.42722
3.50748
3.58706
3.66583
3.74366
3.82043
3.89602
3.97031
4.04316
4.11447
4.18411
4.25198
4.31795
4.38193
4.44382
4.50351
4.56091
4.61593
4.66849
4.7185
4.76588
4.81057
4.85251
4.89163
4.92787
4.9612
4.99156
5.01893
5.04328
5.06458
5.08282
5.098
5.1101
5.11914
5.12516
5.12816
5.12817
5.12539
5.11939
5.11047
5.09873
5.08422
5.06701
5.04719
5.02484
5.00004
4.97289
4.94348
4.91193
4.87834
4.84282
4.80547
4.76641
4.72572
4.68351
4.63986
4.59487
4.54867
4.50137
4.4531
4.40397
4.3541
4.30356
4.25246
4.2009
4.14896
4.09677
4.04441
3.99202
3.93971
3.88761
3.83588
3.78467
3.73418
3.68462
3.63616
3.58913
3.54309
3.49642
0.0408187
0.0312399
0.0303407
0.0342308
0.0403338
0.046976
0.0533629
0.0592724
0.0647231
0.0698024
0.0746085
0.0792322
0.0837518
0.0882339
0.0927347
0.0973013
0.101974
0.106785
0.111763
0.116934
0.122318
0.127935
0.133803
0.139939
0.146359
0.153081
0.160122
0.167501
0.175235
0.183345
0.191852
0.200778
0.210146
0.219982
0.230311
0.241163
0.252566
0.264552
0.277153
0.290403
0.304339
0.318997
0.334416
0.350637
0.367699
0.385647
0.404523
0.424374
0.445244
0.467182
0.490234
0.51445
0.539877
0.566563
0.594558
0.623908
0.65466
0.686859
0.72055
0.755774
0.792572
0.830981
0.871037
0.912771
0.956211
1.00138
1.04831
1.09701
1.14749
1.19976
1.25382
1.30968
1.36733
1.42675
1.48793
1.55085
1.61547
1.68176
1.74968
1.81919
1.89024
1.96276
2.0367
2.11198
2.18854
2.2663
2.34517
2.42506
2.50589
2.58755
2.66995
2.75298
2.83654
2.92051
3.00477
3.08921
3.17372
3.25816
3.34241
3.42635
3.50986
3.59279
3.67504
3.75645
3.83692
3.9163
3.99447
4.0713
4.14668
4.22047
4.29256
4.36283
4.43116
4.49744
4.56157
4.62345
4.68298
4.74007
4.79463
4.84658
4.89583
4.94232
4.98598
5.02675
5.06458
5.09942
5.13122
5.15995
5.18558
5.2081
5.22747
5.24371
5.2568
5.26676
5.2736
5.27736
5.27806
5.27591
5.27058
5.26214
5.25081
5.23664
5.21971
5.20008
5.17784
5.15308
5.1259
5.09638
5.06464
5.03079
4.99492
4.95715
4.9176
4.87637
4.83355
4.78925
4.74357
4.69659
4.64844
4.59924
4.5491
4.49815
4.44648
4.39421
4.34143
4.28824
4.23473
4.18101
4.12719
4.07337
4.01968
3.96626
3.91324
3.86077
3.80905
3.75826
3.70856
3.66027
3.61295
3.56565
0.0515576
0.0365653
0.0333419
0.0364131
0.0424312
0.0492292
0.0557726
0.0617699
0.0672422
0.0722961
0.0770472
0.0816009
0.0860467
0.0904584
0.0948973
0.0994137
0.104049
0.108838
0.113809
0.118988
0.124395
0.13005
0.135972
0.142177
0.148684
0.155509
0.162673
0.170194
0.178094
0.186396
0.195121
0.204296
0.213946
0.224101
0.234789
0.246042
0.257895
0.270381
0.283539
0.297407
0.312024
0.327434
0.343677
0.3608
0.378846
0.397863
0.417899
0.439003
0.461225
0.484616
0.509228
0.535113
0.562322
0.590908
0.620919
0.652404
0.685412
0.719986
0.756171
0.794005
0.833527
0.87477
0.917765
0.962539
1.00911
1.05751
1.10774
1.15981
1.21372
1.26949
1.32709
1.38652
1.44777
1.5108
1.5756
1.64212
1.71034
1.7802
1.85166
1.92467
1.99915
2.07505
2.15229
2.2308
2.31051
2.39131
2.47313
2.55587
2.63942
2.7237
2.80859
2.89399
2.97978
3.06585
3.15208
3.23834
3.32453
3.4105
3.49614
3.58132
3.66592
3.74979
3.83281
3.91486
3.9958
4.07551
4.15385
4.23071
4.30595
4.37947
4.45113
4.52083
4.58845
4.65387
4.717
4.77775
4.83602
4.89171
4.94475
4.99506
5.04257
5.0872
5.1289
5.16761
5.2033
5.23591
5.2654
5.29176
5.31496
5.33499
5.35184
5.36552
5.37602
5.38337
5.38758
5.38873
5.38698
5.3821
5.37406
5.36302
5.34904
5.33227
5.31278
5.29066
5.26599
5.23888
5.2094
5.17768
5.14381
5.10789
5.07005
5.0304
4.98903
4.94607
4.9016
4.85574
4.80857
4.7602
4.71072
4.66027
4.60894
4.55687
4.50414
4.45088
4.39716
4.3431
4.28877
4.2343
4.17977
4.12529
4.07099
4.01699
3.96341
3.91042
3.85817
3.80685
3.75659
3.7077
3.65972
3.6125
0.0651264
0.0428956
0.0365584
0.0384177
0.044145
0.0509679
0.0575605
0.0635467
0.0689503
0.0738995
0.0785288
0.082958
0.0872857
0.0915906
0.0959389
0.100383
0.104965
0.109719
0.114675
0.119856
0.125284
0.13098
0.136961
0.143245
0.149848
0.156791
0.164097
0.171787
0.179888
0.188424
0.197422
0.206912
0.216925
0.227494
0.238654
0.250442
0.262899
0.276064
0.289983
0.3047
0.320262
0.336717
0.354114
0.372502
0.391931
0.412452
0.434117
0.456979
0.481093
0.506513
0.533294
0.561491
0.591157
0.622342
0.655096
0.689464
0.72549
0.763214
0.80267
0.843891
0.886906
0.931738
0.978407
1.02693
1.07731
1.12955
1.18366
1.23963
1.29746
1.35711
1.41859
1.48185
1.54687
1.61362
1.68206
1.75213
1.8238
1.897
1.97168
2.04777
2.1252
2.2039
2.2838
2.36481
2.44684
2.52982
2.61363
2.6982
2.78341
2.86916
2.95535
3.04187
3.12861
3.21544
3.30226
3.38894
3.47536
3.56141
3.64695
3.73186
3.81602
3.8993
3.98156
4.0627
4.14258
4.22108
4.29806
4.37341
4.44701
4.51876
4.58852
4.6562
4.72167
4.78483
4.84557
4.90385
4.95954
5.01257
5.06286
5.11033
5.15493
5.19659
5.23525
5.27084
5.30317
5.33236
5.35842
5.38133
5.40107
5.41766
5.43108
5.44136
5.44849
5.45252
5.45348
5.45165
5.44665
5.43858
5.4276
5.41386
5.39741
5.37828
5.35653
5.33226
5.30554
5.27647
5.24516
5.2117
5.1762
5.13877
5.09952
5.05856
5.016
4.97194
4.92648
4.87973
4.83177
4.78271
4.73264
4.68167
4.62991
4.57747
4.52446
4.47097
4.4171
4.36294
4.30859
4.25414
4.19968
4.14532
4.09117
4.03735
3.98398
3.9312
3.87915
3.82801
3.7779
3.72911
3.68115
3.63475