/*--------------------------------*- C++ -*----------------------------------*\
| =========                 |                                                 |
| \\      /  F ield         | OpenFOAM: The Open Source CFD Toolbox           |
|  \\    /   O peration     | Version:  2412                                  |
|   \\  /    A nd           | Website:  www.openfoam.com                      |
|    \\/     M anipulation  |                                                 |
\*---------------------------------------------------------------------------*/
FoamFile
{
    version     2.0;
    format      ascii;
    arch        "LSB;label=32;scalar=64";
    class       volScalarField;
    location    "302";
    object      nut;
}
// * * * * * * * * * * * * * * * * * * * * * * * * * * * * * * * * * * * * * //

dimensions      [0 2 -1 0 0 0 0];

internalField   nonuniform List<scalar> 
12225
(
0.000145307
0.000151307
0.000136995
0.000119536
0.000108937
0.000102189
9.71714e-05
9.32524e-05
9.02237e-05
8.78807e-05
8.60507e-05
8.46213e-05
8.35264e-05
8.27217e-05
8.21877e-05
8.19379e-05
8.20028e-05
8.05975e-05
4.36956e-05
7.95039e-05
8.38723e-05
8.59917e-05
8.08048e-05
7.59971e-05
7.20154e-05
6.88112e-05
6.6209e-05
6.4079e-05
6.23232e-05
6.08603e-05
5.96504e-05
5.86017e-05
5.77492e-05
5.7037e-05
5.69052e-05
5.31385e-05
1.35654e-05
2.9274e-05
4.28534e-05
4.80474e-05
5.44196e-05
5.74868e-05
5.84644e-05
5.85971e-05
5.82808e-05
5.77193e-05
5.70422e-05
5.63227e-05
5.56404e-05
5.48785e-05
5.42875e-05
5.33673e-05
5.34113e-05
5.0582e-05
0.000125421
1.47902e-05
2.01381e-05
2.49864e-05
2.96395e-05
3.40573e-05
3.78816e-05
4.09366e-05
4.34163e-05
4.53319e-05
4.68484e-05
4.80986e-05
4.90448e-05
4.96939e-05
5.02383e-05
5.04939e-05
5.07371e-05
5.04284e-05
0.000318674
4.69726e-05
2.48863e-05
2.16722e-05
2.16825e-05
2.30812e-05
2.4909e-05
2.69335e-05
2.89763e-05
3.09753e-05
3.28226e-05
3.46294e-05
3.61967e-05
3.77243e-05
3.89789e-05
4.01245e-05
4.13654e-05
4.16956e-05
0.00236427
0.000225062
9.93195e-05
5.81966e-05
4.33324e-05
3.66956e-05
3.32751e-05
3.15982e-05
3.07786e-05
3.04946e-05
3.08451e-05
3.12293e-05
3.18157e-05
3.25902e-05
3.32928e-05
3.41471e-05
3.51031e-05
3.56014e-05
0.0041198
0.000576956
0.000362235
0.000203623
0.000138059
0.000104376
8.5235e-05
7.33541e-05
6.6034e-05
6.08016e-05
5.74924e-05
5.47102e-05
5.28559e-05
5.12581e-05
5.05157e-05
4.94764e-05
4.98482e-05
4.87136e-05
0.0010326
0.000828752
0.000702929
0.00049983
0.000365911
0.00028206
0.00022872
0.000192656
0.000168451
0.000149971
0.000137319
0.000127003
0.000119983
0.000113438
0.000109829
0.000105425
0.000104393
0.000100273
0.000878746
0.000865818
0.000845869
0.000754471
0.000641198
0.000541542
0.000462903
0.000401805
0.00035725
0.000321645
0.000295648
0.000273534
0.000257905
0.000243152
0.000233855
0.00022345
0.000218792
0.000209922
0.000855803
0.00086195
0.000868301
0.000847221
0.000810338
0.000747826
0.000685942
0.00062826
0.000579523
0.000536462
0.000502562
0.000471687
0.000448758
0.000426176
0.000411238
0.000394046
0.00038539
0.000371229
0.000853878
0.000857521
0.00086333
0.000865032
0.000861752
0.000841223
0.000814148
0.000781009
0.000748958
0.000716416
0.000688121
0.000659848
0.000637453
0.000613926
0.000597396
0.000577671
0.000566921
0.00054881
0.000852209
0.00085616
0.000858656
0.000862467
0.000865892
0.000863642
0.000855807
0.000842739
0.000827979
0.000810499
0.000793887
0.00077536
0.000759533
0.000741681
0.000728377
0.000711914
0.000702097
0.00068609
0.00085196
0.00085351
0.000856371
0.000859236
0.0008617
0.000864001
0.000864881
0.000862424
0.000858631
0.000852547
0.000845863
0.00083754
0.00082983
0.000820105
0.000812248
0.000802034
0.000795215
0.000784306
0.000851971
0.000852396
0.00085381
0.000855799
0.000858011
0.00086029
0.000862063
0.000863456
0.000864028
0.000863942
0.000863081
0.000861357
0.000859527
0.000856562
0.000853794
0.00085002
0.000846771
0.000842296
0.0008519
0.000851933
0.000852526
0.000853607
0.000854937
0.000856434
0.000857939
0.000859388
0.000860751
0.000861855
0.000862836
0.00086341
0.000863925
0.000863951
0.000863975
0.000863438
0.000863076
0.000862025
0.000851829
0.000851654
0.00085185
0.000852394
0.000853156
0.000854027
0.000854976
0.000855922
0.000856882
0.000857762
0.000858629
0.000859367
0.000860085
0.000860642
0.000861179
0.00086154
0.000861871
0.000862083
0.000851788
0.000851492
0.000851474
0.000851728
0.000852164
0.000852685
0.000853258
0.00085383
0.000854399
0.000854923
0.000855423
0.000855865
0.00085628
0.000856636
0.000856961
0.000857242
0.000857465
0.000857711
0.000851774
0.000851429
0.000851313
0.000851431
0.000851703
0.000852051
0.00085243
0.000852808
0.000853165
0.000853487
0.00085377
0.000854013
0.000854218
0.00085439
0.000854525
0.000854639
0.000854717
0.000854792
0.000851787
0.000851468
0.000851367
0.000851493
0.000851758
0.000852094
0.00085245
0.000852803
0.000853124
0.00085341
0.000853645
0.000853843
0.000853989
0.000854106
0.000854174
0.000854224
0.000854228
0.000854224
0.000851824
0.000851647
0.00085172
0.000852052
0.000852529
0.000853078
0.000853612
0.000854135
0.000854561
0.000854915
0.00085512
0.000855242
0.000855202
0.000855099
0.000854813
0.00085451
0.000853982
0.000853533
0.000851774
0.00085208
0.000852499
0.000853201
0.000854041
0.000854785
0.000855184
0.000855424
0.000855034
0.000854246
0.000852754
0.00085098
0.000848609
0.000845998
0.000842841
0.000839576
0.000835851
0.000832407
0.000850875
0.000854066
0.000854035
0.00085458
0.000854024
0.000852
0.000847669
0.000842861
0.000834542
0.000825024
0.000813378
0.000801662
0.000788397
0.000776156
0.000762571
0.000750899
0.000737453
0.000727069
0.000847526
0.000864725
0.00084815
0.000843399
0.00082685
0.000804511
0.000774997
0.00074258
0.0007073
0.000674241
0.000641338
0.000612844
0.000584768
0.000561589
0.000538015
0.00051966
0.000499676
0.00048551
0.000852801
0.000910055
0.000796738
0.000747872
0.000661762
0.000580325
0.000508037
0.000449451
0.000400738
0.000362745
0.000330863
0.000305951
0.000283558
0.00026639
0.000250017
0.000238159
0.000225525
0.000217248
0.00103455
0.000968039
0.000585881
0.000400606
0.000285111
0.00021927
0.000177607
0.000150232
0.000130746
0.000116905
0.000106201
9.82583e-05
9.19534e-05
8.70983e-05
8.29462e-05
7.95892e-05
7.65906e-05
7.43165e-05
0.00184373
0.000392613
0.000161675
9.01361e-05
6.41167e-05
5.21128e-05
4.53653e-05
4.13369e-05
3.87968e-05
3.73627e-05
3.63268e-05
3.59044e-05
3.5651e-05
3.58127e-05
3.60471e-05
3.64196e-05
3.69494e-05
3.75665e-05
0.00036543
5.43658e-05
2.76382e-05
2.47275e-05
2.51184e-05
2.68676e-05
2.89604e-05
3.12435e-05
3.37525e-05
3.61602e-05
3.86849e-05
4.10103e-05
4.34889e-05
4.56283e-05
4.80441e-05
5.0059e-05
5.22875e-05
5.42423e-05
0.000289111
1.99455e-05
3.07489e-05
3.99564e-05
4.70115e-05
5.28689e-05
5.80671e-05
6.23795e-05
6.56466e-05
6.8492e-05
7.0878e-05
7.27608e-05
7.4366e-05
7.56514e-05
7.67797e-05
7.76732e-05
7.84854e-05
7.91225e-05
3.30877e-05
7.23563e-05
9.41142e-05
9.87366e-05
0.000102894
0.000102589
0.000100784
9.84314e-05
9.59383e-05
9.35353e-05
9.13373e-05
8.93506e-05
8.75938e-05
8.60284e-05
8.46567e-05
8.34256e-05
8.23488e-05
8.13657e-05
0.000153722
0.000186739
0.000180004
0.000163417
0.000150231
0.000141214
0.000134446
0.000128892
0.000124227
0.000120298
0.000116966
0.000114113
0.000111648
0.000109499
0.000107608
0.000105934
0.000104431
0.000103103
3.61251e-06
8.0492e-06
8.49637e-06
9.04614e-06
9.66403e-06
1.03138e-05
1.09648e-05
1.15936e-05
1.2184e-05
1.27263e-05
1.32158e-05
1.36519e-05
1.4037e-05
1.43758e-05
1.46742e-05
1.49392e-05
1.51784e-05
1.54003e-05
1.56149e-05
1.58356e-05
1.60828e-05
1.63919e-05
1.6828e-05
1.73884e-05
1.80178e-05
1.86881e-05
1.93852e-05
2.01024e-05
2.08369e-05
2.15877e-05
2.23553e-05
2.31406e-05
2.39445e-05
2.47686e-05
2.56143e-05
2.64831e-05
2.73761e-05
2.82947e-05
2.92399e-05
3.02133e-05
3.12158e-05
3.2249e-05
3.3314e-05
3.44121e-05
3.55445e-05
3.67125e-05
3.79169e-05
3.91592e-05
4.044e-05
4.17605e-05
4.3121e-05
4.45223e-05
4.59644e-05
4.74476e-05
4.89711e-05
5.05348e-05
5.21395e-05
5.37858e-05
5.54731e-05
5.72011e-05
5.89687e-05
6.07754e-05
6.26196e-05
6.45001e-05
6.6415e-05
6.83628e-05
7.0341e-05
7.23477e-05
7.43802e-05
7.64362e-05
7.85126e-05
8.06068e-05
8.27155e-05
8.48358e-05
8.69643e-05
8.90979e-05
9.12331e-05
9.33663e-05
9.5494e-05
9.7613e-05
9.97197e-05
0.000101811
0.000103884
0.000105935
0.000107961
0.000109959
0.000111927
0.00011386
0.000115757
0.000117615
0.000119431
0.000121202
0.000122927
0.000124603
0.000126227
0.000127799
0.000129316
0.000130776
0.000132177
0.000133517
0.000134796
0.000136011
0.000137161
0.000138245
0.000139262
0.000140209
0.000141086
0.000141892
0.000142625
0.000143286
0.000143872
0.000144384
0.000144818
0.000145173
0.000145445
0.000145631
0.000145737
0.000145773
0.000145715
0.000145587
0.000145403
0.000145132
0.000144789
0.000144372
0.000143882
0.000143319
0.000142681
0.000141971
0.000141191
0.00014034
0.000139421
0.000138435
0.000137384
0.000136267
0.000135088
0.000133848
0.00013255
0.000131194
0.000129784
0.000128321
0.000126805
0.000125242
0.000123634
0.000121984
0.000120296
0.000118571
0.000116814
0.000115027
0.000113215
0.000111382
0.000109531
0.000107667
0.000105794
0.000103916
0.000102041
0.000100176
9.83306e-05
9.66614e-05
9.64624e-05
9.73507e-05
9.82918e-05
9.92005e-05
0.000100079
0.00010093
0.000101753
0.000102551
0.000103321
0.000104064
0.000104778
0.000105461
0.000106111
0.000106725
0.000107298
0.000107823
0.000108288
0.000108669
0.000108949
0.000108961
0.000108892
0.000106603
3.85599e-06
5.53092e-06
7.79405e-06
1.04147e-05
1.31233e-05
1.57416e-05
1.82022e-05
2.05031e-05
2.26712e-05
2.47425e-05
2.67538e-05
2.87369e-05
3.07145e-05
3.27099e-05
3.47409e-05
3.68189e-05
3.89474e-05
4.11167e-05
4.33061e-05
4.54794e-05
4.75846e-05
4.95555e-05
5.13322e-05
5.2921e-05
5.43813e-05
5.57675e-05
5.71184e-05
5.84575e-05
5.97988e-05
6.11497e-05
6.25143e-05
6.38945e-05
6.52914e-05
6.6706e-05
6.81405e-05
6.96004e-05
7.10839e-05
7.25884e-05
7.41138e-05
7.56606e-05
7.72298e-05
7.88224e-05
8.04396e-05
8.20829e-05
8.37537e-05
8.54533e-05
8.71828e-05
8.89437e-05
9.07384e-05
9.25691e-05
9.44382e-05
9.63481e-05
9.82993e-05
0.000100289
0.000102303
0.000104311
0.000106351
0.000108431
0.000110553
0.000112718
0.00011493
0.000117189
0.000119499
0.000121861
0.000124277
0.000126749
0.00012928
0.000131873
0.000134528
0.000137249
0.000140038
0.000142898
0.000145832
0.000148842
0.000151932
0.000155109
0.000158375
0.000161725
0.00016516
0.000168682
0.000172292
0.000175993
0.000179785
0.000183676
0.000187668
0.000191763
0.000195964
0.000200274
0.000204697
0.000209232
0.000213882
0.000218648
0.000223533
0.000228539
0.000233668
0.000238921
0.0002443
0.000249807
0.000255442
0.000261206
0.0002671
0.000273123
0.000279277
0.000285562
0.000291977
0.000298523
0.000305201
0.000312009
0.000318949
0.000326022
0.000333233
0.0003406
0.000348195
0.000355883
0.000363619
0.000371263
0.000378859
0.000386593
0.000394449
0.000402377
0.000410397
0.000418543
0.000426785
0.000435133
0.000443593
0.000452176
0.000460906
0.00046974
0.000478682
0.000487731
0.000496887
0.000506153
0.000515535
0.000525005
0.000534584
0.00054427
0.000554051
0.000563929
0.000573898
0.000583977
0.000594064
0.000604254
0.000614503
0.000624849
0.000635259
0.000645719
0.000656228
0.000666779
0.000677363
0.000687968
0.000698577
0.000709171
0.000719718
0.000730174
0.000740472
0.000750481
0.000759819
0.000766284
0.000759897
0.00074525
0.00072771
0.000709918
0.000692168
0.000674578
0.000657204
0.000640085
0.000623239
0.000606704
0.0005905
0.000574645
0.000559157
0.000544053
0.00052935
0.000515068
0.000501224
0.000487884
0.000474942
0.000463123
0.000450894
0.000426815
4.33919e-06
5.98392e-06
8.89291e-06
1.32024e-05
1.8704e-05
2.493e-05
3.13992e-05
3.7761e-05
4.38612e-05
4.96632e-05
5.51985e-05
6.05267e-05
6.57161e-05
7.08234e-05
7.58867e-05
8.09217e-05
8.59227e-05
9.08665e-05
9.57101e-05
0.000100394
0.000104851
0.000109022
0.000112876
0.000116439
0.000119777
0.000122962
0.000126057
0.000129106
0.000132139
0.000135174
0.000138223
0.000141289
0.000144377
0.000147487
0.000150616
0.000153758
0.000156918
0.000160099
0.000163305
0.000166538
0.0001698
0.000173092
0.00017642
0.000179786
0.000183197
0.000186655
0.000190161
0.000193718
0.000197334
0.000201015
0.000204771
0.000208614
0.000212557
0.000216619
0.000220828
0.000225225
0.000229764
0.000234447
0.000239285
0.000244291
0.000249475
0.000254851
0.000260431
0.000266227
0.000272252
0.000278519
0.000285039
0.000291826
0.000298891
0.000306246
0.000313901
0.000321869
0.00033016
0.000338781
0.000347741
0.000357061
0.000366752
0.000376806
0.000387227
0.00039802
0.000409187
0.000420732
0.000432656
0.000444964
0.000457654
0.000470726
0.000484178
0.000498007
0.000512209
0.000526777
0.000541705
0.000556987
0.000572613
0.000588576
0.000604865
0.00062147
0.000638379
0.00065558
0.00067306
0.000690804
0.000708799
0.000727029
0.000745479
0.00076413
0.000782966
0.000801968
0.000821116
0.000840393
0.000859782
0.000879268
0.000898812
0.000918295
0.000937535
0.000956755
0.000975892
0.000994852
0.0010137
0.00103254
0.00105134
0.00107004
0.00108866
0.00110722
0.00112568
0.00114404
0.00116227
0.00118038
0.00119837
0.00121619
0.00123383
0.00125129
0.00126853
0.00128558
0.00130249
0.00131906
0.00133541
0.00135156
0.00136744
0.00138306
0.00139837
0.00141341
0.00142812
0.0014425
0.00145643
0.00147016
0.00148355
0.00149657
0.00150922
0.00152151
0.00153342
0.00154493
0.00155604
0.00156672
0.00157694
0.00158663
0.00159572
0.00160396
0.00161071
0.0016133
0.0016038
0.00158475
0.00156069
0.00153477
0.001508
0.00148074
0.00145317
0.00142542
0.00139752
0.00136961
0.00134174
0.00131396
0.00128633
0.00125889
0.00123168
0.00120475
0.00117813
0.00115186
0.00112577
0.00110053
0.00107436
0.00102478
4.89558e-06
6.83249e-06
1.06677e-05
1.69684e-05
2.58188e-05
3.66483e-05
4.85146e-05
6.05366e-05
7.2134e-05
8.30452e-05
9.32194e-05
0.000102719
0.00011165
0.000120122
0.000128223
0.000136016
0.000143537
0.000150797
0.000157787
0.000164487
0.000170874
0.000176943
0.000182712
0.00018822
0.000193525
0.000198684
0.000203754
0.000208776
0.000213783
0.000218794
0.000223822
0.000228876
0.000233967
0.000239098
0.000244273
0.000249496
0.000254771
0.000260104
0.000265501
0.000270967
0.000276511
0.00028214
0.000287864
0.000293696
0.000299655
0.000305768
0.000312085
0.000318597
0.000325297
0.000332194
0.000339307
0.000346653
0.000354257
0.000362149
0.000370359
0.000378905
0.000387778
0.000396994
0.000406581
0.000416565
0.000426969
0.000437814
0.000449122
0.000460915
0.000473212
0.000486031
0.000499392
0.00051331
0.000527799
0.000542874
0.000558544
0.000574819
0.000591707
0.000609212
0.000627338
0.000646088
0.00066546
0.000685445
0.000706036
0.000727224
0.000748998
0.000771346
0.000794253
0.000817703
0.000841678
0.000866159
0.000891123
0.000916548
0.000942411
0.000968687
0.000995353
0.00102238
0.00104974
0.00107741
0.00110536
0.00113356
0.00116198
0.0011906
0.00121938
0.00124829
0.0012773
0.00130639
0.00133552
0.00136466
0.00139378
0.00142284
0.00145179
0.00148062
0.00150927
0.00153767
0.00156574
0.00159349
0.00162088
0.00164796
0.00167469
0.00170103
0.00172701
0.00175266
0.00177795
0.00180285
0.00182735
0.00185144
0.0018751
0.00189831
0.00192106
0.00194333
0.0019651
0.00198637
0.00200716
0.00202742
0.00204711
0.00206625
0.00208485
0.00210277
0.00212008
0.00213694
0.00215312
0.00216871
0.00218361
0.00219789
0.00221153
0.00222438
0.00223656
0.0022482
0.00225916
0.00226944
0.00227906
0.00228802
0.00229633
0.00230398
0.00231097
0.00231728
0.00232291
0.0023278
0.00233186
0.00233486
0.00233615
0.00233371
0.00232304
0.00230468
0.0022813
0.0022552
0.00222749
0.00219869
0.00216907
0.00213883
0.00210829
0.00207734
0.00204604
0.00201445
0.00198263
0.00195063
0.00191851
0.0018863
0.00185402
0.00182167
0.00178907
0.00175646
0.00172141
0.00166086
5.39718e-06
7.81149e-06
1.28589e-05
2.15431e-05
3.41869e-05
5.00204e-05
6.7573e-05
8.53961e-05
0.000102509
0.000118433
0.00013304
0.000146395
0.000158649
0.000169971
0.000180521
0.00019043
0.000199802
0.000208718
0.000217235
0.000225402
0.000233262
0.000240844
0.000248186
0.000255331
0.000262328
0.000269227
0.00027607
0.000282896
0.000289733
0.000296607
0.000303537
0.000310538
0.000317619
0.000324789
0.000332058
0.000339437
0.000346938
0.000354571
0.000362352
0.000370293
0.000378411
0.00038672
0.000395238
0.000403982
0.000412968
0.000422208
0.000431694
0.00044146
0.000451551
0.000461993
0.00047281
0.000484019
0.000495627
0.000507691
0.000520278
0.000533449
0.000547305
0.000561792
0.000576885
0.000592608
0.000608992
0.000626059
0.000643832
0.000662329
0.000681568
0.000701562
0.000722323
0.000743859
0.000766176
0.000789277
0.000813162
0.000837827
0.000863265
0.000889469
0.000916425
0.000944119
0.000972533
0.00100164
0.00103143
0.00106187
0.00109293
0.00112458
0.0011568
0.00118956
0.00122281
0.00125653
0.00129069
0.00132524
0.00136015
0.00139539
0.00143092
0.00146671
0.00150271
0.00153889
0.00157521
0.00161164
0.00164814
0.00168467
0.00172119
0.00175768
0.00179409
0.00183039
0.00186653
0.00190249
0.00193822
0.00197367
0.0020088
0.00204353
0.00207785
0.00211172
0.00214512
0.00217802
0.00221041
0.00224227
0.00227359
0.00230435
0.00233453
0.00236415
0.00239317
0.00242157
0.00244933
0.00247644
0.00250287
0.0025286
0.00255361
0.00257789
0.00260142
0.00262418
0.00264615
0.00266731
0.00268765
0.00270716
0.00272584
0.00274365
0.0027606
0.00277671
0.00279199
0.00280656
0.00282006
0.00283272
0.00284449
0.0028552
0.00286516
0.00287425
0.00288246
0.00288981
0.0028963
0.00290195
0.00290678
0.00291079
0.00291398
0.00291637
0.00291795
0.00291868
0.0029185
0.00291721
0.00291432
0.00290855
0.00289755
0.00288109
0.0028604
0.00283685
0.00281134
0.00278437
0.00275625
0.00272718
0.00269725
0.00266663
0.00263539
0.0026036
0.00257132
0.00253861
0.00250554
0.00247212
0.0024384
0.0024044
0.00237006
0.00233516
0.00229739
0.00223625
5.77985e-06
8.87273e-06
1.54653e-05
2.69751e-05
4.37826e-05
6.4689e-05
8.76284e-05
0.00011066
0.000132523
0.000152635
0.000170865
0.000187325
0.000202229
0.000215819
0.000228325
0.000239946
0.000250847
0.000261165
0.000271006
0.00028046
0.0002896
0.000298488
0.00030718
0.000315728
0.000324182
0.000332586
0.000340981
0.000349399
0.000357871
0.000366421
0.00037507
0.000383837
0.000392736
0.000401785
0.000410998
0.000420393
0.000429987
0.000439797
0.000449845
0.000460148
0.00047073
0.000481613
0.000492818
0.000504371
0.000516294
0.000528612
0.000541349
0.000554543
0.000568231
0.000582453
0.000597246
0.000612657
0.000628747
0.000645523
0.000662988
0.000681143
0.000699952
0.000719459
0.000739704
0.000760742
0.000782617
0.000805348
0.000828953
0.000853441
0.000878822
0.000905099
0.000932273
0.000960341
0.000989295
0.00101913
0.00104982
0.00108136
0.00111372
0.00114689
0.00118083
0.00121552
0.00125093
0.00128702
0.00132375
0.0013611
0.00139903
0.00143749
0.00147644
0.00151586
0.00155569
0.00159589
0.00163643
0.00167726
0.00171834
0.00175963
0.0018011
0.00184269
0.00188437
0.0019261
0.00196783
0.00200953
0.00205116
0.00209268
0.00213405
0.00217523
0.00221618
0.00225687
0.00229727
0.00233732
0.00237699
0.00241626
0.00245511
0.00249349
0.00253134
0.00256863
0.00260532
0.0026414
0.00267684
0.00271163
0.00274573
0.00277913
0.00281183
0.00284379
0.002875
0.00290543
0.00293506
0.00296388
0.00299185
0.00301897
0.0030452
0.00307053
0.00309494
0.00311842
0.00314095
0.00316251
0.00318309
0.00320268
0.00322127
0.00323885
0.00325541
0.00327096
0.0032855
0.00329923
0.00331174
0.00332326
0.00333366
0.00334303
0.00335141
0.00335878
0.00336514
0.00337051
0.00337492
0.00337837
0.00338089
0.00338249
0.00338319
0.00338301
0.00338193
0.00337996
0.00337705
0.00337305
0.00336765
0.00336008
0.00334911
0.00333437
0.00331629
0.00329563
0.00327297
0.00324873
0.00322318
0.00319651
0.00316885
0.0031403
0.00311097
0.00308093
0.00305024
0.00301895
0.00298714
0.00295483
0.00292206
0.00288884
0.00285506
0.00282054
0.0027831
0.0027267
6.02376e-06
1.00219e-05
1.85123e-05
3.32366e-05
5.43921e-05
8.01739e-05
0.000107968
0.00013548
0.000161314
0.000184872
0.000206056
0.000225033
0.000242082
0.000257509
0.000271605
0.000284627
0.000296792
0.000308282
0.000319244
0.000329798
0.000340044
0.000350062
0.000359923
0.000369686
0.000379403
0.00038912
0.000398876
0.000408705
0.000418637
0.000428699
0.000438913
0.000449302
0.000459887
0.000470689
0.000481727
0.000493024
0.000504602
0.000516485
0.000528696
0.000541262
0.000554209
0.000567563
0.000581355
0.000595612
0.000610365
0.000625646
0.000641488
0.000657928
0.000675004
0.000692751
0.000711207
0.000730406
0.00075038
0.000771146
0.000792718
0.00081511
0.000838339
0.000862448
0.000887492
0.000913464
0.000940357
0.000968174
0.000996917
0.00102659
0.00105718
0.00108868
0.00112108
0.00115437
0.00118854
0.00122355
0.00125939
0.00129602
0.00133344
0.00137159
0.00141046
0.00145
0.00149019
0.00153098
0.00157234
0.00161423
0.00165661
0.00169945
0.0017427
0.00178631
0.00183026
0.0018745
0.00191899
0.00196369
0.00200856
0.00205356
0.00209865
0.00214378
0.00218893
0.00223404
0.00227908
0.00232402
0.0023688
0.0024134
0.00245777
0.00250189
0.0025457
0.00258917
0.00263227
0.00267495
0.00271718
0.00275893
0.00280016
0.00284082
0.00288089
0.00292032
0.00295908
0.00299716
0.00303451
0.00307113
0.00310699
0.00314206
0.00317633
0.00320977
0.00324236
0.00327408
0.00330491
0.00333481
0.00336378
0.00339178
0.00341881
0.00344484
0.00346985
0.00349383
0.00351676
0.00353863
0.00355942
0.00357913
0.00359774
0.00361525
0.00363165
0.00364694
0.00366114
0.00367438
0.00368638
0.00369728
0.00370701
0.00371565
0.00372315
0.00372955
0.00373487
0.00373914
0.00374237
0.00374458
0.00374579
0.00374602
0.0037453
0.00374364
0.00374106
0.00373755
0.00373309
0.00372759
0.00372087
0.00371247
0.00370176
0.0036884
0.00367249
0.00365438
0.00363443
0.00361292
0.00359008
0.00356606
0.00354099
0.00351498
0.00348811
0.00346044
0.00343206
0.00340302
0.00337338
0.00334319
0.0033125
0.00328134
0.00324965
0.00321722
0.0031821
0.00313233
6.1578e-06
1.12402e-05
2.18134e-05
3.98198e-05
6.51467e-05
9.53909e-05
0.000127507
0.000158933
0.000188194
0.000214694
0.000238376
0.000259461
0.000278292
0.000295235
0.000310639
0.000324814
0.000338024
0.000350489
0.000362389
0.000373872
0.000385057
0.00039604
0.000406903
0.000417712
0.000428522
0.000439381
0.00045033
0.000461404
0.000472636
0.000484052
0.000495679
0.000507542
0.000519665
0.000532072
0.000544788
0.000557838
0.000571248
0.000585045
0.000599255
0.000613909
0.000629035
0.000644664
0.000660827
0.000677555
0.000694881
0.000712838
0.00073146
0.00075078
0.000770832
0.000791648
0.000813256
0.000835685
0.000858957
0.000883089
0.000908097
0.000933997
0.000960808
0.000988548
0.00101723
0.00104686
0.00107743
0.00110893
0.00114137
0.00117472
0.00120898
0.00124413
0.00128016
0.00131705
0.00135476
0.00139328
0.00143259
0.00147264
0.00151341
0.00155487
0.00159698
0.00163971
0.00168302
0.00172688
0.00177124
0.00181608
0.00186134
0.001907
0.001953
0.00199932
0.00204592
0.00209274
0.00213976
0.00218694
0.00223423
0.00228159
0.00232899
0.00237639
0.00242374
0.00247101
0.00251816
0.00256515
0.00261194
0.0026585
0.00270478
0.00275075
0.00279637
0.00284161
0.00288642
0.00293076
0.00297461
0.00301793
0.00306068
0.00310282
0.00314431
0.00318513
0.00322525
0.00326463
0.00330325
0.00334109
0.00337811
0.0034143
0.00344962
0.00348407
0.00351761
0.00355022
0.00358187
0.00361255
0.00364224
0.0036709
0.00369852
0.00372509
0.00375059
0.00377499
0.00379829
0.00382047
0.00384153
0.00386144
0.0038802
0.00389781
0.00391426
0.00392954
0.00394371
0.00395675
0.0039686
0.00397931
0.00398884
0.0039972
0.00400432
0.00401031
0.00401519
0.00401896
0.00402166
0.0040233
0.0040239
0.0040235
0.00402211
0.00401975
0.00401646
0.00401222
0.00400704
0.00400087
0.0039936
0.00398498
0.00397468
0.00396246
0.00394828
0.00393228
0.00391465
0.00389559
0.00387525
0.00385376
0.00383123
0.00380775
0.0037834
0.00375825
0.00373237
0.00370582
0.00367868
0.003651
0.00362285
0.00359428
0.0035653
0.0035357
0.0035038
0.00346136
6.35502e-06
1.23113e-05
2.45201e-05
4.52348e-05
7.42264e-05
0.000108587
0.000144777
0.000179927
0.000212416
0.000241635
0.00026757
0.000290511
0.000310872
0.000329089
0.000345574
0.000360689
0.000374746
0.000388001
0.000400664
0.000412907
0.000424866
0.000436651
0.000448353
0.000460042
0.00047178
0.000483617
0.000495594
0.000507748
0.000520113
0.000532718
0.00054559
0.000558757
0.000572245
0.000586079
0.000600287
0.000614896
0.000629932
0.000645424
0.000661402
0.000677894
0.000694931
0.000712544
0.000730762
0.000749617
0.00076914
0.000789362
0.000810313
0.000832021
0.000854515
0.00087782
0.00090196
0.000926953
0.000952818
0.000979568
0.00100722
0.00103577
0.00106525
0.00109565
0.00112697
0.00115922
0.00119239
0.00122646
0.00126143
0.00129728
0.00133399
0.00137155
0.00140994
0.00144913
0.0014891
0.00152983
0.00157127
0.00161342
0.00165623
0.00169967
0.00174371
0.00178831
0.00183345
0.00187909
0.00192519
0.00197171
0.00201862
0.00206589
0.00211346
0.00216132
0.00220942
0.00225772
0.00230618
0.00235477
0.00240345
0.00245218
0.00250092
0.00254964
0.00259829
0.00264684
0.00269524
0.00274347
0.00279148
0.00283923
0.00288669
0.00293382
0.00298058
0.00302693
0.00307283
0.00311826
0.00316316
0.00320752
0.00325128
0.00329441
0.00333688
0.00337866
0.00341971
0.00346001
0.00349951
0.00353821
0.00357607
0.00361306
0.00364916
0.00368435
0.0037186
0.00375188
0.00378417
0.00381545
0.0038457
0.0038749
0.00390303
0.00393006
0.00395599
0.0039808
0.00400447
0.00402699
0.00404835
0.00406855
0.00408756
0.00410539
0.00412204
0.00413749
0.00415178
0.00416489
0.00417683
0.00418764
0.00419729
0.00420565
0.00421274
0.00421869
0.00422351
0.00422721
0.00422981
0.00423134
0.00423182
0.00423127
0.00422972
0.0042272
0.00422372
0.00421931
0.00421397
0.00420768
0.00420037
0.00419192
0.00418216
0.00417093
0.00415817
0.00414392
0.00412827
0.00411132
0.0040932
0.004074
0.00405381
0.00403271
0.00401077
0.00398806
0.00396466
0.00394062
0.00391601
0.00389093
0.00386544
0.00383962
0.00381352
0.00378699
0.0037586
0.0037229
7.15014e-06
1.28232e-05
2.53434e-05
4.76367e-05
7.97232e-05
0.000118147
0.000158519
0.000197555
0.000233344
0.000265253
0.000293334
0.000317972
0.000339676
0.000358967
0.000376331
0.00039219
0.000406902
0.000420763
0.000434012
0.000446841
0.000459403
0.000471821
0.000484191
0.000496591
0.000509085
0.000521723
0.00053455
0.000547604
0.000560917
0.000574519
0.000588441
0.000602708
0.000617347
0.000632386
0.00064785
0.000663767
0.000680164
0.00069707
0.000714511
0.000732517
0.000751115
0.000770335
0.000790205
0.000810751
0.000832002
0.000853984
0.000876722
0.00090024
0.000924558
0.000949698
0.000975675
0.00100251
0.0010302
0.00105877
0.00108822
0.00111855
0.00114977
0.00118189
0.00121488
0.00124876
0.00128351
0.00131911
0.00135556
0.00139284
0.00143093
0.00146982
0.00150948
0.00154989
0.00159102
0.00163286
0.00167538
0.00171855
0.00176234
0.00180672
0.00185167
0.00189715
0.00194313
0.00198958
0.00203647
0.00208377
0.00213144
0.00217944
0.00222776
0.00227634
0.00232515
0.00237416
0.00242334
0.00247264
0.00252203
0.00257147
0.00262093
0.00267037
0.00271974
0.00276901
0.00281815
0.00286711
0.00291586
0.00296435
0.00301255
0.00306041
0.00310791
0.003155
0.00320165
0.00324781
0.00329345
0.00333853
0.00338302
0.00342687
0.00347006
0.00351254
0.00355429
0.00359527
0.00363546
0.00367482
0.00371332
0.00375094
0.00378766
0.00382343
0.00385825
0.00389208
0.00392491
0.0039567
0.00398744
0.0040171
0.00404568
0.00407314
0.00409948
0.00412468
0.00414873
0.00417161
0.00419332
0.00421384
0.00423318
0.00425131
0.00426824
0.00428398
0.00429853
0.00431183
0.0043241
0.00433519
0.00434516
0.00435364
0.00436096
0.00436713
0.00437216
0.00437607
0.00437888
0.0043806
0.00438128
0.00438093
0.00437957
0.00437725
0.00437398
0.00436978
0.00436466
0.00435861
0.00435162
0.00434363
0.00433454
0.00432426
0.00431276
0.00430001
0.00428607
0.00427099
0.00425485
0.00423772
0.00421968
0.00420078
0.00418111
0.00416071
0.00413967
0.00411805
0.00409593
0.00407339
0.00405053
0.00402744
0.00400421
0.00398074
0.00395584
0.00392611
8.16663e-06
1.30849e-05
2.50235e-05
4.77344e-05
8.20035e-05
0.000124098
0.00016855
0.000211531
0.000250662
0.000285236
0.000315368
0.000341556
0.000364422
0.000384591
0.00040263
0.000419029
0.000434198
0.000448469
0.000462113
0.00047534
0.00048832
0.000501184
0.000514035
0.000526954
0.000540008
0.000553248
0.000566718
0.000580457
0.000594497
0.000608867
0.000623597
0.000638711
0.000654236
0.000670197
0.000686621
0.000703531
0.000720955
0.000738917
0.000757443
0.000776558
0.000796289
0.000816658
0.000837691
0.000859411
0.000881841
0.000905001
0.000928912
0.000953591
0.000979056
0.00100532
0.0010324
0.00106029
0.00108902
0.00111858
0.00114899
0.00118023
0.00121231
0.00124523
0.00127898
0.00131356
0.00134895
0.00138515
0.00142214
0.00145991
0.00149844
0.00153771
0.00157772
0.00161844
0.00165985
0.00170193
0.00174465
0.001788
0.00183195
0.00187648
0.00192156
0.00196717
0.00201327
0.00205984
0.00210686
0.00215429
0.0022021
0.00225026
0.00229874
0.0023475
0.00239652
0.00244576
0.00249519
0.00254476
0.00259444
0.0026442
0.002694
0.00274379
0.00279355
0.00284323
0.00289279
0.0029422
0.0029914
0.00304037
0.00308907
0.00313745
0.00318547
0.00323309
0.00328027
0.00332699
0.00337318
0.00341882
0.00346387
0.00350829
0.00355204
0.00359509
0.00363741
0.00367895
0.00371969
0.00375959
0.00379864
0.00383678
0.00387401
0.00391029
0.0039456
0.00397991
0.00401319
0.00404544
0.00407661
0.00410671
0.0041357
0.00416356
0.0041903
0.00421588
0.00424031
0.00426356
0.00428563
0.00430652
0.00432621
0.0043447
0.00436198
0.00437807
0.00439289
0.00440664
0.00441931
0.0044309
0.00444111
0.00444996
0.00445767
0.00446423
0.00446966
0.00447398
0.0044772
0.00447935
0.00448046
0.00448056
0.00447966
0.00447781
0.00447501
0.00447131
0.0044667
0.0044612
0.0044548
0.00444748
0.00443921
0.00442993
0.00441962
0.00440827
0.00439589
0.00438252
0.00436821
0.004353
0.00433695
0.00432014
0.0043026
0.00428441
0.00426564
0.00424635
0.00422663
0.00420657
0.00418627
0.00416583
0.00414537
0.00412484
0.00410325
0.00407878
9.31716e-06
1.32823e-05
2.41798e-05
4.64429e-05
8.19168e-05
0.000126988
0.000175268
0.000221876
0.000264242
0.000301346