/*--------------------------------*- C++ -*----------------------------------*\
| =========                 |                                                 |
| \\      /  F ield         | OpenFOAM: The Open Source CFD Toolbox           |
|  \\    /   O peration     | Version:  2412                                  |
|   \\  /    A nd           | Website:  www.openfoam.com                      |
|    \\/     M anipulation  |                                                 |
\*---------------------------------------------------------------------------*/
FoamFile
{
    version     2.0;
    format      ascii;
    arch        "LSB;label=32;scalar=64";
    class       volScalarField;
    location    "302";
    object      p;
}
// * * * * * * * * * * * * * * * * * * * * * * * * * * * * * * * * * * * * * //

dimensions      [0 2 -2 0 0 0 0];

internalField   nonuniform List<scalar> 
12225
(
25.4357
7.27227
1.69439
0.994811
0.25899
-0.608171
-1.29511
-1.83509
-2.30578
-2.74043
-3.15201
-3.54984
-3.94201
-4.33619
-4.73886
-5.16142
-5.60374
-6.08421
19.6535
6.81639
1.96196
1.10409
0.314011
-0.576353
-1.2752
-1.81793
-2.29029
-2.72722
-3.14077
-3.54003
-3.93328
-4.32822
-4.73103
-5.15276
-5.59413
-6.08108
15.9429
7.19295
2.45957
1.25729
0.422827
-0.486761
-1.21312
-1.77061
-2.25114
-2.69452
-3.11273
-3.51484
-3.90961
-4.30474
-4.70529
-5.11874
-5.52855
-5.9079
13.8173
7.63145
2.96404
1.4321
0.574719
-0.336683
-1.09546
-1.6766
-2.17089
-2.62505
-3.05137
-3.45825
-3.85474
-4.24797
-4.64103
-5.03481
-5.39613
-5.68765
11.9701
7.53473
3.30649
1.61494
0.740195
-0.157731
-0.939286
-1.5437
-2.05151
-2.51566
-2.94957
-3.36033
-3.75637
-4.14375
-4.5227
-4.8882
-5.2017
-5.43372
10.2586
7.11349
3.5247
1.79705
0.89255
0.0164571
-0.770368
-1.39121
-1.9094
-2.37999
-2.81815
-3.22961
-3.62117
-3.99757
-4.35664
-4.68981
-4.96254
-5.15211
8.87771
6.58373
3.62495
1.94507
1.01421
0.165734
-0.609384
-1.23725
-1.76146
-2.23408
-2.67213
-3.08031
-3.46368
-3.82549
-4.16239
-4.46473
-4.70602
-4.86766
7.81748
6.05855
3.6231
2.04243
1.10407
0.28605
-0.466682
-1.09307
-1.61913
-2.09032
-2.52471
-2.92658
-3.29953
-3.64555
-3.96125
-4.23771
-4.45704
-4.60461
6.88059
5.56514
3.56217
2.10179
1.17295
0.384598
-0.341491
-0.960288
-1.4849
-1.95252
-2.38116
-2.77511
-3.13694
-3.46782
-3.765
-4.02135
-4.22601
-4.36876
6.0356
5.07738
3.45746
2.13442
1.22997
0.470964
-0.227032
-0.834072
-1.35466
-1.81755
-2.23949
-2.62496
-2.97594
-3.29323
-3.57499
-3.81626
-4.01126
-4.15356
5.31411
4.61616
3.31794
2.14112
1.27595
0.548691
-0.119536
-0.711036
-1.22483
-1.68173
-2.09634
-2.47324
-2.81413
-3.11975
-3.38918
-3.61959
-3.80853
-3.95241
4.75019
4.21984
3.1639
2.12302
1.30622
0.611626
-0.0273361
-0.601216
-1.10597
-1.5559
-1.96311
-2.33213
-2.66453
-2.96115
-3.22184
-3.4453
-3.63107
-3.77721
4.2674
3.85525
2.99902
2.0875
1.32466
0.664971
0.0566124
-0.497169
-0.99049
-1.43193
-1.83101
-2.19203
-2.51652
-2.80543
-3.05921
-3.27777
-3.46192
-3.61091
3.79919
3.48333
2.80739
2.03005
1.33295
0.715077
0.142144
-0.3865
-0.864136
-1.29414
-1.68312
-2.03486
-2.35086
-2.6322
-2.87985
-3.09464
-3.27825
-3.43081
3.36614
3.1266
2.60179
1.9538
1.33099
0.760654
0.226558
-0.272645
-0.730333
-1.14586
-1.5228
-1.86407
-2.17115
-2.4452
-2.68756
-2.89963
-3.08354
-3.24004
2.99505
2.81276
2.40524
1.87112
1.32389
0.803533
0.309156
-0.158546
-0.593313
-0.991982
-1.35545
-1.68553
-1.98354
-2.25071
-2.48851
-2.69863
-2.88328
-3.04369
2.72059
2.57767
2.25241
1.80632
1.32496
0.850706
0.392737
-0.045208
-0.457054
-0.838389
-1.18821
-1.50727
-1.79664
-2.05753
-2.29141
-2.50004
-2.68548
-2.84929
2.59353
2.47262
2.19284
1.79812
1.35871
0.916003
0.483774
0.0676528
-0.32641
-0.69361
-1.03203
-1.34181
-1.62389
-1.87948
-2.11005
-2.3173
-2.50312
-2.66932
2.69991
2.57934
2.29898
1.90314
1.46388
1.0236
0.595487
0.184231
-0.204692
-0.56662
-0.89983
-1.20479
-1.48277
-1.73521
-1.96374
-2.17021
-2.35645
-2.52461
3.10139
2.94744
2.59802
2.12554
1.62811
1.15039
0.696633
0.266559
-0.134932
-0.503832
-0.840186
-1.14606
-1.42365
-1.67496
-1.90207
-2.10717
-2.29223
-2.45972
3.64219
3.43178
2.96314
2.36592
1.78238
1.2523
0.761335
0.302936
-0.117252
-0.496517
-0.837981
-1.14597
-1.42371
-1.67387
-1.89912
-2.10209
-2.28502
-2.45063
4.34413
4.03558
3.37251
2.59648
1.90922
1.32255
0.789542
0.299089
-0.140412
-0.529055
-0.87453
-1.18357
-1.46033
-1.70814
-1.93035
-2.13011
-2.30983
-2.47244
5.21019
4.73842
3.78412
2.78459
1.99469
1.35627
0.780694
0.259598
-0.195175
-0.589662
-0.936918
-1.24535
-1.51956
-1.76368
-1.9818
-2.17757
-2.35359
-2.51308
6.25851
5.51685
4.15163
2.91041
2.04341
1.36096
0.740112
0.190639
-0.274023
-0.670417
-1.0172
-1.32336
-1.59365
-1.83301
-2.04626
-2.23748
-2.4096
-2.5664
7.52211
6.35744
4.42339
2.93935
2.03996
1.32858
0.665894
0.0939775
-0.375611
-0.771581
-1.11646
-1.4189
-1.684
-1.91754
-2.12494
-2.31031
-2.4772
-2.62846
9.06468
7.27497
4.59224
2.87219
1.96434
1.23005
0.539752
-0.0385807
-0.504402
-0.895446
-1.23421
-1.52874
-1.78521
-2.01023
-2.20949
-2.38672
-2.54601
-2.68646
10.8745
8.02986
4.61378
2.78496
1.86611
1.08878
0.384791
-0.182178
-0.636352
-1.01875
-1.34805
-1.63212
-1.87849
-2.09442
-2.2855
-2.45517
-2.60789
-2.73998
12.9789
8.0738
4.20683
2.62529
1.7588
0.939693
0.233888
-0.315285
-0.756569
-1.12926
-1.44823
-1.72215
-1.95958
-2.16781
-2.35214
-2.51584
-2.66331
-2.79165
16.6546
7.98765
3.57189
2.37869
1.62271
0.80951
0.123292
-0.407253
-0.836683
-1.19865
-1.50682
-1.77133
-2.00134
-2.2037
-2.38333
-2.54342
-2.68779
-2.81528
22.8639
9.05624
3.29685
2.15389
1.48694
0.727799
0.0804189
-0.431841
-0.854979
-1.21391
-1.51998
-1.78316
-2.01231
-2.21403
-2.39312
-2.5528
-2.69671
-2.82457
-4.9291
-4.92895
-4.92885
-4.92889
-4.92909
-4.92946
-4.93
-4.93069
-4.93153
-4.93251
-4.93361
-4.93481
-4.9361
-4.93748
-4.93893
-4.94045
-4.94204
-4.9437
-4.94544
-4.94724
-4.94913
-4.9511
-4.95315
-4.9553
-4.95755
-4.9599
-4.96237
-4.96496
-4.96768
-4.97053
-4.97354
-4.9767
-4.98003
-4.98353
-4.9872
-4.99107
-4.99513
-4.9994
-5.00387
-5.00857
-5.01349
-5.01864
-5.02403
-5.02966
-5.03554
-5.04168
-5.04806
-5.05471
-5.0616
-5.06875
-5.07614
-5.08377
-5.09163
-5.0997
-5.10797
-5.11642
-5.12501
-5.13371
-5.14249
-5.1513
-5.16008
-5.16879
-5.17735
-5.1857
-5.19373
-5.20138
-5.20852
-5.21506
-5.22087
-5.22582
-5.22976
-5.23254
-5.234
-5.23396
-5.23224
-5.22864
-5.22295
-5.21497
-5.20445
-5.19118
-5.17489
-5.15535
-5.13228
-5.10542
-5.07451
-5.03926
-4.9994
-4.95463
-4.90465
-4.84919
-4.78799
-4.72076
-4.64722
-4.56709
-4.4801
-4.38598
-4.28449
-4.17537
-4.05841
-3.93337
-3.80005
-3.65828
-3.50788
-3.34869
-3.18056
-3.00337
-2.81702
-2.62145
-2.4166
-2.20247
-1.97906
-1.74641
-1.50457
-1.2537
-0.99397
-0.725506
-0.448325
-0.162656
0.131247
0.433065
0.742489
1.05917
1.38276
1.71288
2.04912
2.39101
2.73807
3.0898
3.44568
3.80514
4.16764
4.53259
4.89938
5.26743
5.6361
6.00479
6.37287
6.73972
7.10473
7.4673
7.82682
8.18271
8.53439
8.88133
9.22299
9.55888
9.88853
10.2115
10.5274
10.8358
11.1364
11.429
11.7133
11.989
12.2562
12.5147
12.765
13.007
13.2402
13.4633
13.6764
13.8797
14.0738
14.2591
14.4356
14.6038
14.7637
14.9156
15.0597
15.1963
15.3257
15.4482
15.5641
15.674
15.7784
15.8784
15.9759
16.0721
16.1804
16.271
-4.92925
-4.92906
-4.92894
-4.92898
-4.92918
-4.92953
-4.93003
-4.93066
-4.93143
-4.93232
-4.93332
-4.93441
-4.93559
-4.93686
-4.9382
-4.93962
-4.94111
-4.94267
-4.94431
-4.94603
-4.94784
-4.94972
-4.9517
-4.95377
-4.95594
-4.95822
-4.9606
-4.96311
-4.96574
-4.96851
-4.97141
-4.97447
-4.97769
-4.98107
-4.98463
-4.98837
-4.99229
-4.99642
-5.00075
-5.00529
-5.01004
-5.01503
-5.02024
-5.02569
-5.03139
-5.03733
-5.04352
-5.04996
-5.05664
-5.06357
-5.07075
-5.07816
-5.08579
-5.09363
-5.10167
-5.10988
-5.11824
-5.12671
-5.13527
-5.14386
-5.15243
-5.16094
-5.16931
-5.17747
-5.18534
-5.19283
-5.19984
-5.20626
-5.21197
-5.21683
-5.22071
-5.22345
-5.22489
-5.22486
-5.22317
-5.21963
-5.21403
-5.20615
-5.19577
-5.18265
-5.16654
-5.14721
-5.12437
-5.09777
-5.06714
-5.0322
-4.99268
-4.94827
-4.89866
-4.84359
-4.78281
-4.71604
-4.64297
-4.56334
-4.47686
-4.38329
-4.28235
-4.17382
-4.05746
-3.93305
-3.80039
-3.65929
-3.5096
-3.35113
-3.18376
-3.00734
-2.82179
-2.62704
-2.42306
-2.20982
-1.98736
-1.75568
-1.51481
-1.26482
-1.00588
-0.738181
-0.461926
-0.177266
0.115567
0.41629
0.724587
1.04013
1.36257
1.69153
2.02659
2.3673
2.71319
3.06374
3.41844
3.77675
4.13809
4.50191
4.86759
5.23456
5.60218
5.96985
6.33695
6.70287
7.06699
7.42873
7.78747
8.14265
8.49369
8.84004
9.18119
9.51664
9.84592
10.1686
10.4843
10.7926
11.0932
11.3858
11.6702
11.9462
12.2137
12.4729
12.7238
12.9665
13.2003
13.4244
13.6386
13.8433
14.0388
14.2254
14.4033
14.5727
14.7339
14.8871
15.0325
15.1704
15.301
15.4248
15.5419
15.6531
15.759
15.8604
15.9596
16.057
16.1676
16.2537
-4.92872
-4.92854
-4.92844
-4.9285
-4.92872
-4.92908
-4.92957
-4.93018
-4.93091
-4.93173
-4.93265
-4.93365
-4.93473
-4.93589
-4.93712
-4.93841
-4.93979
-4.94123
-4.94275
-4.94435
-4.94602
-4.94778
-4.94963
-4.95156
-4.95359
-4.95573
-4.95797
-4.96033
-4.96281
-4.96542
-4.96816
-4.97105
-4.97408
-4.97727
-4.98063
-4.98416
-4.98786
-4.99175
-4.99584
-5.00013
-5.00462
-5.00933
-5.01426
-5.01942
-5.02481
-5.03044
-5.03631
-5.04242
-5.04878
-5.05537
-5.06221
-5.06928
-5.07657
-5.08408
-5.09178
-5.09966
-5.1077
-5.11587
-5.12413
-5.13244
-5.14076
-5.14903
-5.15718
-5.16515
-5.17286
-5.18022
-5.18713
-5.19348
-5.19915
-5.20401
-5.20793
-5.21074
-5.21229
-5.2124
-5.21089
-5.20756
-5.2022
-5.1946
-5.18452
-5.17174
-5.156
-5.13706
-5.11465
-5.08851
-5.05836
-5.02394
-4.98497
-4.94114
-4.89215
-4.83773
-4.77763
-4.71157
-4.63926
-4.56042
-4.47478
-4.38209
-4.28208
-4.17453
-4.05919
-3.93585
-3.80432
-3.66441
-3.51595
-3.35877
-3.19274
-3.01772
-2.83363
-2.64039
-2.43798
-2.22635
-2.00549
-1.77543
-1.53626
-1.28806
-1.03095
-0.765101
-0.490721
-0.207968
0.0829221
0.381681
0.687995
1.00155
1.322
1.64899
1.98207
2.32083
2.66479
3.01344
3.36628
3.72277
4.08236
4.44446
4.80851
5.1739
5.54002
5.90626
6.27203
6.6367
6.99967
7.36035
7.71815
8.07248
8.42278
8.76851
9.10915
9.4442
9.7732
10.0957
10.4113
10.7197
11.0205
11.3135
11.5983
11.875
12.1432
12.403
12.6544
12.8971
13.131
13.3559
13.5717
13.7782
13.9756
14.1642
14.3441
14.5155
14.6788
14.834
14.9814
15.1213
15.2539
15.3797
15.4989
15.6122
15.7202
15.8239
15.9256
16.0244
16.1369
16.214
-4.92736
-4.92725
-4.92724
-4.92737
-4.92766
-4.92807
-4.9286
-4.92924
-4.92997
-4.93077
-4.93165
-4.93258
-4.93358
-4.93464
-4.93576
-4.93694
-4.93818
-4.9395
-4.94088
-4.94233
-4.94385
-4.94546
-4.94714
-4.94891
-4.95077
-4.95273
-4.9548
-4.95697
-4.95927
-4.96168
-4.96422
-4.9669
-4.96971
-4.97267
-4.97579
-4.97907
-4.98252
-4.98614
-4.98995
-4.99394
-4.99814
-5.00255
-5.00717
-5.01201
-5.01708
-5.02238
-5.02792
-5.03371
-5.03973
-5.046
-5.05252
-5.05927
-5.06627
-5.07348
-5.08091
-5.08853
-5.09632
-5.10426
-5.11231
-5.12044
-5.12859
-5.13672
-5.14476
-5.15265
-5.16031
-5.16764
-5.17455
-5.18093
-5.18666
-5.1916
-5.19563
-5.19858
-5.20029
-5.20058
-5.19928
-5.19619
-5.19109
-5.18376
-5.174
-5.16155
-5.14617
-5.12762
-5.10564
-5.07996
-5.0503
-5.01642
-4.97802
-4.93482
-4.88649
-4.8328
-4.77348
-4.70825
-4.63683
-4.55894
-4.47432
-4.38271
-4.28385
-4.17751
-4.06346
-3.94148
-3.81137
-3.67295
-3.52605
-3.3705
-3.20614
-3.03287
-2.85057
-2.65919
-2.45866
-2.24895
-2.03008
-1.80206
-1.56497
-1.31889
-1.06394
-0.800257
-0.528034
-0.247447
0.0412734
0.337865
0.642027
0.953457
1.27181
1.59673
1.9278
2.26459
2.60662
2.95342
3.30448
3.65926
4.01721
4.37778
4.74038
5.10443
5.46931
5.83442
6.19915
6.56291
6.92509
7.2851
7.64234
7.99624
8.34624
8.6918
9.03238
9.36749
9.69667
10.0195
10.3355
10.6444
10.9459
11.2396
11.5253
11.8028
12.072
12.3328
12.5849
12.8278
13.0615
13.2865
13.5029
13.7104
13.909
14.0989
14.2802
14.4532
14.6179
14.7747
14.9237
15.0653
15.1996
15.3271
15.4481
15.5632
15.6731
15.7785
15.8818
15.9807
16.0924
16.1581
-4.92523
-4.92526
-4.92539
-4.92565
-4.92606
-4.92658
-4.92722
-4.92794
-4.92872
-4.92955
-4.93042
-4.93133
-4.93227
-4.93325
-4.93428
-4.93536
-4.93649
-4.93768
-4.93893
-4.94025
-4.94163
-4.94309
-4.94462
-4.94624
-4.94794
-4.94974
-4.95163
-4.95364
-4.95575
-4.95798
-4.96033
-4.96281
-4.96542
-4.96818
-4.97108
-4.97414
-4.97736
-4.98075
-4.98433
-4.98809
-4.99205
-4.99621
-5.00059
-5.00519
-5.01002
-5.0151
-5.02041
-5.02598
-5.0318
-5.03787
-5.04421
-5.0508
-5.05764
-5.06472
-5.07204
-5.07957
-5.0873
-5.09519
-5.10322
-5.11134
-5.11952
-5.12769
-5.1358
-5.14377
-5.15153
-5.15899
-5.16605
-5.17259
-5.1785
-5.18365
-5.1879
-5.19108
-5.19304
-5.19361
-5.19259
-5.1898
-5.18503
-5.17805
-5.16865
-5.15659
-5.14164
-5.12353
-5.10202
-5.07685
-5.04774
-5.01443
-4.97665
-4.9341
-4.88648
-4.83354
-4.77501
-4.71063
-4.6401
-4.56315
-4.47952
-4.38894
-4.29118
-4.18598
-4.07312
-3.95238
-3.82357
-3.68649
-3.54096
-3.38683
-3.22392
-3.05215
-2.87138
-2.68156
-2.48262
-2.27455
-2.05732
-1.83099
-1.59559
-1.35123
-1.09798
-0.836018
-0.565484
-0.286588
0.000463771
0.295392
0.597932
0.907762
1.22457
1.54796
1.87756
2.21291
2.55358
2.89906
3.24887
3.60247
3.95932
4.31886
4.68051
5.04368
5.40779
5.77221
6.13633
6.49958
6.86134
7.22103
7.57804
7.93182
8.28178
8.62739
8.96811
9.30346
9.63296
9.95618
10.2727
10.5822
10.8842
11.1787
11.4651
11.7435
12.0135
12.2749
12.5275
12.7707
13.0044
13.2294
13.4457
13.6535
13.8526
14.0431
14.2252
14.3989
14.5646
14.7223
14.8723
15.0149
15.1503
15.2788
15.4009
15.5171
15.628
15.7341
15.8376
15.9351
16.0434
16.0971
-4.92246
-4.92266
-4.92297
-4.92341
-4.92399
-4.9247
-4.9255
-4.92637
-4.92727
-4.92818
-4.92909
-4.93001
-4.93095
-4.93189
-4.93287
-4.93387
-4.93492
-4.93602
-4.93717
-4.93838
-4.93965
-4.94099
-4.9424
-4.94389
-4.94547
-4.94714
-4.9489
-4.95077
-4.95275
-4.95483
-4.95704
-4.95937
-4.96184
-4.96445
-4.9672
-4.97011
-4.97318
-4.97643
-4.97986
-4.98348
-4.9873
-4.99133
-4.99559
-5.00008
-5.00481
-5.00979
-5.01502
-5.02052
-5.0263
-5.03234
-5.03866
-5.04526
-5.05213
-5.05927
-5.06666
-5.07429
-5.08214
-5.09017
-5.09836
-5.10667
-5.11504
-5.12344
-5.13179
-5.14002
-5.14805
-5.1558
-5.16315
-5.17001
-5.17624
-5.18172
-5.18631
-5.18985
-5.19217
-5.19311
-5.19248
-5.19008
-5.18571
-5.17915
-5.17018
-5.15856
-5.14406
-5.12643
-5.10542
-5.08075
-5.05217
-5.01942
-4.98221
-4.94025
-4.89325
-4.84096
-4.78311
-4.71943
-4.64963
-4.57344
-4.49059
-4.40083
-4.30391
-4.19958
-4.08762
-3.96782
-3.83996
-3.70386
-3.55934
-3.40622
-3.24436
-3.07365
-2.89397
-2.70525
-2.50743
-2.3005
-2.08444
-1.85927
-1.62505
-1.38185
-1.12978
-0.868976
-0.599596
-0.321835
-0.0359136
0.257909
0.559362
0.868141
1.18392
1.50631
1.83494
2.16936
2.50913
2.85376
3.20276
3.55559
3.91173
4.27061
4.63165
4.99428
5.35789
5.72188
6.08564
6.44857
6.81008
7.16957
7.52646
7.88017
8.23013
8.5758
8.91664
9.25215
9.58187
9.90537
10.2222
10.5321
10.8347
11.1296
11.4165
11.6954
11.9658
12.2276
12.4804
12.7238
12.9577
13.1826
13.399
13.6068
13.8061
13.997
14.1794
14.3536
14.5198
14.678
14.8286
14.9718
15.1079
15.2371
15.3598
15.4765
15.5878
15.6939
15.7965
15.8915
15.9955
16.0376
-4.9192
-4.9196
-4.92014
-4.9208
-4.92161
-4.92255
-4.92358
-4.92466
-4.92573
-4.92678
-4.92779
-4.92878
-4.92974
-4.9307
-4.93166
-4.93264
-4.93364
-4.93468
-4.93576
-4.9369
-4.93809
-4.93935
-4.94068
-4.94209
-4.94358
-4.94516
-4.94683
-4.94861
-4.95049
-4.95248
-4.9546
-4.95684
-4.95922
-4.96174
-4.96442
-4.96725
-4.97026
-4.97344
-4.97682
-4.9804
-4.98419
-4.98821
-4.99246
-4.99695
-5.00171
-5.00673
-5.01202
-5.0176
-5.02347
-5.02963
-5.03609
-5.04284
-5.04989
-5.05722
-5.06483
-5.07269
-5.08079
-5.0891
-5.09759
-5.10621
-5.11492
-5.12366
-5.13236
-5.14096
-5.14937
-5.15751
-5.16526
-5.17251
-5.17916
-5.18505
-5.19006
-5.19402
-5.19677
-5.19814
-5.19794
-5.19597
-5.19203
-5.18591
-5.17738
-5.16621
-5.15216
-5.13498
-5.11442
-5.09022
-5.06211
-5.02982
-4.99309
-4.95162
-4.90513
-4.85334
-4.79602
-4.73287
-4.66361
-4.58798
-4.5057
-4.41652
-4.3202
-4.21648
-4.10515
-3.98599
-3.8588
-3.72336
-3.57951
-3.42707
-3.26591
-3.09589
-2.91694
-2.72895
-2.53189
-2.3257
-2.11041
-1.886
-1.65255
-1.41012
-1.15881
-0.898757
-0.630129
-0.353102
-0.0679171
0.225198
0.52595
0.834061
1.14917
1.47093
1.79893
2.13276
2.47195
2.81603
3.1645
3.51685
3.87252
4.23097
4.59161
4.95387
5.31716
5.68085
6.04437
6.40708
6.7684
7.12775
7.48454
7.83819
8.18812
8.53377
8.87465
9.21024
9.54009
9.86375
10.1808
10.4909
10.7937
11.0889
11.3761
11.6552
11.9258
12.1878
12.4407
12.6842
12.9182
13.1433
13.3597
13.5676
13.767
13.958
14.1407
14.3152
14.4816
14.6403
14.7913
14.9349
15.0713
15.2009
15.324
15.4408
15.552
15.6574
15.7587
15.8508
15.9504
15.9819
-4.91571
-4.91633
-4.91712
-4.91802
-4.9191
-4.92034
-4.92166
-4.92301
-4.92431
-4.92554
-4.9267
-4.92779
-4.92883
-4.92983
-4.93082
-4.9318
-4.93279
-4.93381
-4.93487
-4.93597
-4.93712
-4.93833
-4.93962
-4.94097
-4.94241
-4.94394
-4.94556
-4.94729
-4.94912
-4.95107
-4.95315
-4.95536
-4.95771
-4.9602
-4.96286
-4.96569
-4.9687
-4.9719
-4.9753
-4.97892
-4.98277
-4.98685
-4.99119
-4.99579
-5.00067
-5.00583
-5.01129
-5.01705
-5.02312
-5.0295
-5.03621
-5.04323
-5.05056
-5.0582
-5.06612
-5.07433
-5.08278
-5.09146
-5.10033
-5.10935
-5.11846
-5.12761
-5.13675
-5.14578
-5.15463
-5.1632
-5.1714
-5.17911
-5.1862
-5.19255
-5.198
-5.2024
-5.2056
-5.2074
-5.20763
-5.20609
-5.20257
-5.19687
-5.18875
-5.17798
-5.16433
-5.14754
-5.12736
-5.10354
-5.07581
-5.0439
-5.00754
-4.96644
-4.92031
-4.8689
-4.81195
-4.74917
-4.68029
-4.60503
-4.52313
-4.43434
-4.3384
-4.23509
-4.12416
-4.00541
-3.87862
-3.74361
-3.60017
-3.44816
-3.28743
-3.11786
-2.93935
-2.75181
-2.55521
-2.34949
-2.13466
-1.91074
-1.67776
-1.4358
-1.18496
-0.925375
-0.657206
-0.380643
-0.0959081
0.196762
0.497091
0.804781
1.11949
1.44085
1.76846
2.10191
2.44074
2.78447
3.13261
3.48463
3.84001
4.19817
4.55855
4.92057
5.28362
5.64711
6.01044
6.37299
6.73416
7.09338
7.45007
7.80363
8.15349
8.49911
8.83997
9.17557
9.50544
9.82915
10.1463
10.4565
10.7593
11.0546
11.3419
11.6211
11.8918
12.1538
12.4067
12.6502
12.8845
13.1097
13.3262
13.5341
13.7336
13.9247
14.1075
14.2821
14.4488
14.6077
14.7589
14.9028
15.0394
15.1692
15.2923
15.4091
15.5198
15.6243
15.7238
15.8128
15.9083
15.9302
-4.9123
-4.91314
-4.91419
-4.91536
-4.91675
-4.91834
-4.92002
-4.92168
-4.92325
-4.9247
-4.92604
-4.92727
-4.92841
-4.92948
-4.93052
-4.93153
-4.93255
-4.93357
-4.93462
-4.93571
-4.93685
-4.93805
-4.93931
-4.94065
-4.94207
-4.94358
-4.94519
-4.9469
-4.94873
-4.95068
-4.95275
-4.95497
-4.95733
-4.95986
-4.96255
-4.96543
-4.9685
-4.97177
-4.97527
-4.97899
-4.98296
-4.98718
-4.99168
-4.99645
-5.00152
-5.00689
-5.01258
-5.01859
-5.02493
-5.03161
-5.03862
-5.04596
-5.05364
-5.06164
-5.06994
-5.07854
-5.0874
-5.0965
-5.10579
-5.11525
-5.12481
-5.13442
-5.144
-5.15349
-5.16281
-5.17184
-5.1805
-5.18866
-5.1962
-5.20299
-5.20887
-5.2137
-5.21731
-5.21953
-5.22015
-5.219
-5.21586
-5.21051
-5.20274
-5.19231
-5.17898
-5.16251
-5.14264
-5.1191
-5.09165
-5.06001
-5.02391
-4.98306
-4.93718
-4.886
-4.82929
-4.76675
-4.69809
-4.62305
-4.54137
-4.45279
-4.35707
-4.25398
-4.14327
-4.02475
-3.89818
-3.76338
-3.62016
-3.46838
-3.30787
-3.13854
-2.96026
-2.77298
-2.57662
-2.37116
-2.15658
-1.93292
-1.70019
-1.4585
-1.20792
-0.948598
-0.680687
-0.404394
-0.119909
0.172504
0.472596
0.780037
1.09451
1.41563
1.74302
2.07623
2.41483
2.75834
3.10627
3.45808
3.81325
4.17122
4.53142
4.89325
5.25613
5.61945
5.98261
6.345
6.70603
7.06514
7.42171
7.77516
8.12491
8.47043
8.81119
9.14672
9.47652
9.80018
10.1173
10.4274
10.7302
11.0255
11.3128
11.5919
11.8625
12.1244
12.3773
12.6209
12.8552
13.0805
13.297
13.505
13.7045
13.8957
14.0786
14.2533
14.4201
14.5791
14.7305
14.8745
15.0112
15.141
15.264
15.3805
15.4905
15.5939
15.6915
15.7773
15.869
15.8827
-4.90939
-4.91044
-4.91173
-4.91318
-4.91491
-4.91689
-4.91896
-4.92098
-4.92285
-4.92455
-4.92607
-4.92745
-4.9287
-4.92986
-4.93095
-4.93201
-4.93305
-4.9341
-4.93516
-4.93626
-4.9374
-4.9386
-4.93986
-4.9412
-4.94262
-4.94414
-4.94575
-4.94748
-4.94932
-4.95129
-4.9534
-4.95566
-4.95807
-4.96066
-4.96343
-4.96639
-4.96956
-4.97295
-4.97658
-4.98045
-4.98458
-4.98899
-4.99368
-4.99867
-5.00397
-5.0096
-5.01555
-5.02185
-5.0285
-5.03549
-5.04284
-5.05054
-5.05858
-5.06696
-5.07566
-5.08466
-5.09394
-5.10346
-5.11319
-5.12308
-5.13308
-5.14313
-5.15316
-5.16309
-5.17284
-5.18231
-5.1914
-5.19998
-5.20794
-5.21513
-5.22141
-5.22662
-5.23059
-5.23316
-5.23412
-5.23329
-5.23046
-5.2254
-5.2179
-5.20773
-5.19464
-5.17839
-5.15872
-5.13538
-5.1081
-5.07662
-5.04067
-4.99996
-4.9542
-4.90314
-4.84654
-4.78409
-4.71552
-4.64056
-4.55896
-4.47046
-4.37481
-4.27179
-4.16116
-4.04269
-3.91619
-3.78145
-3.6383
-3.48658
-3.32615
-3.15689
-2.9787
-2.7915
-2.59523
-2.38987
-2.17539
-1.95183
-1.71922
-1.47763
-1.22716
-0.967964
-0.700185
-0.424017
-0.139664
0.152628
0.452588
0.759901
1.07424
1.39522
1.72246
2.05553
2.39399
2.73734
3.08511
3.43677
3.79177
4.14957
4.5096
4.87127
5.23398
5.59713
5.96011
6.32234
6.68322
7.04219
7.39859
7.75185
8.10142
8.44677
8.78736
9.12272
9.45236
9.77586
10.0928
10.4028
10.7055
11.0006
11.2877
11.5667
11.8371
12.0988
12.3516
12.5951
12.8295
13.0548
13.2714
13.4794
13.6789
13.87
14.053
14.2278
14.3946
14.5537
14.7051
14.8491
14.9859
15.1156
15.2383
15.3543
15.4636
15.5657
15.6612
15.7441
15.8322
15.8388
-4.90741
-4.90865
-4.91016
-4.91187
-4.91394
-4.91632
-4.91882
-4.92122
-4.92341
-4.92535
-4.92706
-4.92858
-4.92993
-4.93116
-4.9323
-4.93339
-4.93446
-4.93551
-4.93659
-4.93769
-4.93883
-4.94003
-4.9413
-4.94264
-4.94408
-4.9456
-4.94724
-4.94899
-4.95086
-4.95287
-4.95503
-4.95735
-4.95983
-4.9625
-4.96537
-4.96844
-4.97173
-4.97526
-4.97904
-4.98308
-4.98739
-4.992
-4.99691
-5.00213
-5.00768
-5.01357
-5.01981
-5.0264
-5.03335
-5.04067
-5.04835
-5.0564
-5.0648
-5.07355
-5.08263
-5.09201
-5.10168
-5.1116
-5.12173
-5.13202
-5.14242
-5.15287
-5.1633
-5.17362
-5.18376
-5.19361
-5.20306
-5.212
-5.2203
-5.22782
-5.23442
-5.23993
-5.24419
-5.24702
-5.24824
-5.24764
-5.24501
-5.24015
-5.23283
-5.22281
-5.20985
-5.19372
-5.17415
-5.15088
-5.12367
-5.09223
-5.0563
-5.01561
-4.96985
-4.91879
-4.86217
-4.79969
-4.73108
-4.65608
-4.57443
-4.48588
-4.39018
-4.2871
-4.17641
-4.05788
-3.93133
-3.79652
-3.65332
-3.50154
-3.34108
-3.17177
-2.99355
-2.80631
-2.61003
-2.40464
-2.19017
-1.9666
-1.734
-1.49242
-1.242
-0.982827
-0.715101
-0.438975
-0.154684
0.137556
0.437439
0.74468
1.05892
1.3798
1.70692
2.03987
2.37818
2.7214
3.06901
3.42051
3.77535
4.13297
4.49282
4.85429
5.2168
5.57973
5.94249
6.30451
6.6652
7.02393
7.38007
7.73305
8.08235
8.42742
8.76775
9.10283
9.4322
9.75542
10.0721
10.3818
10.6842
10.979
11.2659
11.5446
11.8148
12.0762
12.3288
12.5722
12.8065
13.0318
13.2484
13.4563
13.6558
13.8469
14.0298
14.2046
14.3715
14.5305
14.682
14.8259
14.9626
15.0921
15.2146
15.33
15.4384
15.5391
15.6326
15.7125
15.7974
15.798
-4.9068
-4.90821
-4.90991
-4.91184
-4.91422
-4.91701
-4.91993
-4.92271
-4.92521
-4.92738
-4.92926
-4.93087
-4.93229
-4.93356
-4.93472
-4.93581
-4.93687
-4.93791
-4.93897
-4.94005
-4.94119
-4.94237
-4.94363
-4.94497
-4.94641
-4.94794
-4.94959
-4.95136
-4.95327
-4.95532
-4.95753
-4.95991
-4.96247
-4.96523
-4.96819
-4.97138
-4.9748
-4.97847
-4.98241
-4.98662
-4.99112
-4.99592
-5.00104
-5.00649
-5.01228
-5.01842
-5.02491
-5.03178
-5.03902
-5.04663
-5.05461
-5.06297
-5.07169
-5.08077
-5.09017
-5.09989
-5.1099
-5.12015
-5.13061
-5.14124
-5.15197
-5.16274
-5.17348
-5.18411
-5.19454
-5.20467
-5.21439
-5.22359
-5.23213
-5.23988
-5.24668
-5.25239
-5.25682
-5.2598
-5.26115
-5.26066
-5.25812
-5.25333
-5.24605
-5.23606
-5.22311
-5.20697
-5.18737
-5.16405
-5.13677
-5.10525
-5.06923
-5.02843
-4.98255
-4.93136
-4.8746
-4.81198
-4.74322
-4.66805
-4.58624
-4.49753
-4.40167
-4.29843
-4.18757
-4.06889
-3.94217
-3.80722
-3.66386
-3.51195
-3.35135
-3.18193
-3.00359
-2.81626
-2.61988
-2.41442
-2.19987
-1.97625
-1.7436
-1.502
-1.25156
-0.992403
-0.724695
-0.448608
-0.164355
0.127823
0.427639
0.734787
1.04892
1.36969
1.69668
2.02949
2.36764
2.71068
3.0581
3.40939
3.76401
4.1214
4.481
4.84221
5.20442
5.56704
5.92951
6.29125
6.65163
7.00999
7.36574
7.71834
8.06726
8.41194
8.75187
9.08654
9.41551
9.73832
10.0546
10.3639
10.6659
10.9603
11.2468
11.5251
11.7949
12.056
12.3082
12.5514
12.7856
13.0109
13.2273
13.4352
13.6346
13.8256
14.0085
14.1832
14.35
14.509
14.6604
14.8043
14.9408
15.0701
15.1921
15.3069
15.4144
15.5136
15.6052
15.6825
15.7643
15.7601
-4.908
-4.90958
-4.91145
-4.91356
-4.9162
-4.91935
-4.92266
-4.92579
-4.92855
-4.9309
-4.93287
-4.93453
-4.93595
-4.93719
-4.93831
-4.93935
-4.94035
-4.94133
-4.94233
-4.94336
-4.94444
-4.94559
-4.94681
-4.94812
-4.94954
-4.95106
-4.95271
-4.95448
-4.95641
-4.95849
-4.96074
-4.96318
-4.96581
-4.96864
-4.9717
-4.97499
-4.97853
-4.98233
-4.9864
-4.99077
-4.99543
-5.00041
-5.00572
-5.01136
-5.01735
-5.0237
-5.03042
-5.03751
-5.04497
-5.05282
-5.06104
-5.06965
-5.07861
-5.08793
-5.09759
-5.10755
-5.11779
-5.12828
-5.13898
-5.14982
-5.16076
-5.17174
-5.18267
-5.19348
-5.20407
-5.21435
-5.2242
-5.23351
-5.24215
-5.24998
-5.25684
-5.26259
-5.26704
-5.27002
-5.27135
-5.27082
-5.26822
-5.26335
-5.25597
-5.24586
-5.23277
-5.21647
-5.1967
-5.1732
-5.14572
-5.11399
-5.07774
-5.0367
-4.99058
-4.93915
-4.88213
-4.81925
-4.75023
-4.67481
-4.59274
-4.50377
-4.40765
-4.30418
-4.19308
-4.07417
-3.94721
-3.81205
-3.66848
-3.51639
-3.35561
-3.18604
-3.00755
-2.8201
-2.6236
-2.41806
-2.20342
-1.97975
-1.74706
-1.50545
-1.255
-0.995875
-0.728194
-0.452165
-0.167973
0.124107
0.423817
0.730824
1.04482
1.3654
1.6922
2.02478
2.3627
2.70548
3.05262
3.4036
3.7579
4.11495
4.47418
4.83499
5.19678
5.55901
5.92107
6.28239
6.64229
7.00013
7.35535
7.70743
8.0558
8.39995
8.73932
9.07345
9.40185
9.72411
10.0398
10.3486
10.65
10.9439
11.2299
11.5076
11.777
12.0376
12.2895
12.5324
12.7663
12.9914
13.2077
13.4154
13.6147
13.8056
13.9883
14.163
14.3297
14.4886
14.6399
14.7837
14.92
15.049
15.1706
15.2847
15.3911
15.489
15.5787
15.6535
15.7324
15.7244
-4.91152
-4.91325
-4.91527
-4.91751
-4.92035
-4.92378
-4.92741
-4.9308
-4.93373
-4.93615
-4.93812
-4.93971
-4.94103
-4.94214
-4.94313
-4.94403
-4.94489
-4.94575
-4.94663
-4.94756
-4.94854
-4.9496
-4.95074
-4.95199
-4.95335
-4.95483
-4.95644
-4.95821
-4.96013
-4.96221
-4.96449
-4.96695
-4.96962
-4.97252
-4.97564
-4.97901
-4.98264
-4.98654
-4.99072
-4.9952
-4.99999
-5.00509
-5.01053
-5.01631
-5.02244
-5.02893
-5.03578
-5.04301
-5.05062
-5.0586
-5.06696
-5.0757
-5.08479
-5.09424
-5.10401
-5.11408
-5.12442
-5.135
-5.14577
-5.15668
-5.16766
-5.17867
-5.18962
-5.20043
-5.211
-5.22125
-5.23105
-5.24029
-5.24884
-5.25655
-5.26329
-5.26889
-5.27318
-5.27598
-5.27711
-5.27636
-5.27353
-5.2684
-5.26075
-5.25036
-5.23698
-5.22036
-5.20027
-5.17645
-5.14863
-5.11655
-5.07995
-5.03856
-4.99209
-4.9403
-4.88294
-4.81972
-4.75036
-4.67461
-4.59221
-4.50293
-4.40653
-4.30276
-4.19139
-4.0722
-3.94499
-3.80959
-3.66581
-3.51352
-3.35256
-3.18281
-3.00419
-2.81661
-2.62002
-2.41439
-2.19972
-1.97601
-1.74332
-1.50173
-1.25134
-0.992286
-0.724709
-0.448797
-0.16476
0.127148
0.426649
0.733428
1.04716
1.36747
1.69396
2.02621
2.36375
2.70613
3.05286
3.4034
3.75723
4.11378
4.47248
4.83273
5.19398
5.55565
5.91715
6.27784
6.63705
6.99419
7.34872
7.70011
8.04777
8.39119
8.72984
9.06324
9.39092
9.71246
10.0274
10.3355
10.6363
10.9295
11.2147
11.4919
11.7606
12.0207
12.2721
12.5145
12.7481
12.9729
13.189
13.3965
13.5956
13.7864
13.9689
14.1435
14.3101
14.4689
14.6201
14.7637
14.8998
15.0284
15.1496
15.263
15.3684
15.4649
15.5528
15.6253
15.7015
15.6908
-4.91791
-4.91979
-4.92195
-4.92427
-4.92721
-4.93081
-4.93462
-4.93812
-4.94105
-4.94336
-4.94515
-4.94652
-4.94758
-4.94844
-4.94916
-4.94982
-4.95045
-4.9511
-4.95178
-4.95252
-4.95335
-4.95426
-4.95528
-4.95641
-4.95767
-4.95907
-4.96062
-4.96233
-4.96421
-4.96627
-4.96853
-4.97099
-4.97367
-4.97658
-4.97972
-4.98313
-4.98679
-4.99074
-4.99496
-4.99949
-5.00433
-5.00948
-5.01496
-5.02078
-5.02694
-5.03345
-5.04032
-5.04756
-5.05516
-5.06314
-5.07148
-5.08018
-5.08924
-5.09862
-5.10832
-5.11831
-5.12855
-5.13901
-5.14964
-5.16039
-5.1712
-5.18202
-5.19275
-5.20333
-5.21367
-5.22365
-5.23316
-5.2421
-5.25033
-5.25772
-5.26411
-5.26935
-5.27326
-5.27568
-5.2764
-5.27524
-5.27199
-5.26644
-5.25837
-5.24754
-5.23372
-5.21667
-5.19613
-5.17186
-5.1436
-5.11107
-5.07404
-5.03219
-4.98531
-4.9331
-4.87532
-4.81168
-4.74192
-4.66578
-4.58303
-4.49341
-4.39668
-4.29258
-4.18091
-4.06143
-3.93397
-3.79833
-3.65436
-3.50187
-3.34077
-3.17089
-2.99217
-2.80451
-2.60789
-2.40224
-2.18759
-1.96393
-1.73133
-1.48985
-1.23962
-0.980729
-0.713366
-0.437687
-0.153935
0.137674
0.436823
0.74323
1.05656
1.37644
1.70245
2.0342
2.3712
2.71302
3.05915
3.40907
3.76223
4.11808
4.47606
4.83559
5.19611
5.55702
5.91773
6.27753
6.63582
6.99204
7.34568
7.69615
8.04291
8.3854
8.72313
9.0556
9.38237
9.703
10.0171
10.3243
10.6242
10.9165
11.201
11.4774
11.7454
12.0048
12.2556
12.4975
12.7307
12.9551
13.1709
13.3781
13.577
13.7675
13.9499
14.1243
14.2908
14.4495
14.6005
14.7439
14.8798
15.0081
15.1287
15.2414
15.3459
15.4411
15.5273
15.5977
15.6714
15.6587
-4.92818
-4.93023
-4.9325
-4.93482
-4.93773
-4.9413
-4.94506
-4.9484
-4.95104
-4.95297
-4.95431
-4.9552
-4.95579
-4.9562
-4.9565
-4.95676
-4.95704
-4.95736
-4.95776
-4.95824
-4.95882
-4.95952
-4.96034
-4.96131
-4.96241
-4.96367
-4.9651
-4.9667
-4.96849
-4.97047
-4.97265
-4.97505
-4.97767
-4.98052
-4.98362
-4.98697
-4.99058
-4.99446
-4.99862
-5.00307
-5.00783
-5.01288
-5.01825
-5.02394
-5.02996
-5.03631
-5.04299
-5.05003
-5.05741
-5.06515
-5.07324
-5.08167
-5.09043
-5.09951
-5.10887
-5.1185
-5.12835
-5.13841
-5.14861
-5.15892
-5.16927
-5.17961
-5.18985
-5.19992
-5.20973
-5.21917
-5.22816
-5.23655
-5.24423
-5.25106
-5.25688
-5.26155
-5.26489
-5.26673
-5.26687
-5.26513
-5.2613
-5.25515
-5.24649
-5.23507
-5.22067
-5.20303
-5.18193
-5.15708
-5.12826
-5.0952
-5.05762
-5.01528
-4.96787
-4.91518
-4.85694
-4.79286
-4.72268
-4.64617
-4.56304
-4.47306
-4.37599
-4.27159
-4.15963
-4.03991
-3.91223
-3.7764
-3.63227
-3.47968
-3.31848
-3.14855
-2.9698
-2.78217
-2.5856
-2.38005
-2.16553
-1.94206
-1.70968
-1.46846
-1.21851
-0.959947
-0.692938
-0.417676
-0.134369
0.156749
0.455368
0.761184
1.07388
1.39308
1.71836
2.04936
2.38559
2.7266
3.07189
3.42092
3.77317
4.1281
4.48513
4.84368