/*--------------------------------*- C++ -*----------------------------------*\
| =========                 |                                                 |
| \\      /  F ield         | OpenFOAM: The Open Source CFD Toolbox           |
|  \\    /   O peration     | Version:  2412                                  |
|   \\  /    A nd           | Website:  www.openfoam.com                      |
|    \\/     M anipulation  |                                                 |
\*---------------------------------------------------------------------------*/
FoamFile
{
    version     2.0;
    format      ascii;
    arch        "LSB;label=32;scalar=64";
    class       surfaceScalarField;
    location    "302";
    object      phi;
}
// * * * * * * * * * * * * * * * * * * * * * * * * * * * * * * * * * * * * * //

dimensions      [0 3 -1 0 0 0 0];

oriented        oriented;

internalField   nonuniform List<scalar> 
24170
(
2.12692e-06
1.06149e-06
1.40006e-06
7.26857e-07
1.05874e-06
3.41312e-07
8.8279e-07
1.75937e-07
7.7483e-07
1.07937e-07
7.00323e-07
7.44695e-08
6.45685e-07
5.46138e-08
6.05058e-07
4.05954e-08
5.74619e-07
3.04179e-08
5.51509e-07
2.30851e-08
5.33868e-07
1.76249e-08
5.20567e-07
1.32842e-08
5.10934e-07
9.62254e-09
5.046e-07
6.32293e-09
5.01621e-07
2.9728e-09
5.02577e-07
-9.62399e-10
5.08928e-07
-6.35407e-09
-5.78407e-08
5.66765e-07
3.40035e-06
1.07844e-06
2.9487e-06
1.17871e-06
2.50115e-06
7.8901e-07
2.15999e-06
5.17245e-07
1.92288e-06
3.45176e-07
1.75927e-06
2.38201e-07
1.64074e-06
1.73253e-07
1.55093e-06
1.30497e-07
1.48151e-06
9.99186e-08
1.42736e-06
7.73074e-08
1.38495e-06
6.00975e-08
1.3519e-06
4.63828e-08
1.32668e-06
3.48837e-08
1.3084e-06
2.46302e-08
1.29675e-06
1.46588e-08
1.29278e-06
3.03314e-09
1.29982e-06
-1.33705e-08
-6.27066e-08
1.30471e-06
3.87957e-06
8.61391e-07
3.84237e-06
1.21594e-06
3.63627e-06
9.9513e-07
3.37553e-06
7.77993e-07
3.12715e-06
5.93544e-07
2.91992e-06
4.454e-07
2.75498e-06
3.38183e-07
2.62408e-06
2.61367e-07
2.51958e-06
2.044e-07
2.43572e-06
1.61136e-07
2.3683e-06
1.27509e-07
2.31424e-06
1.00428e-07
2.27143e-06
7.76751e-08
2.23854e-06
5.75109e-08
2.21487e-06
3.83242e-08
2.20046e-06
1.7436e-08
2.19515e-06
-8.06014e-09
-5.11137e-08
2.18355e-06
4.11745e-06
6.69288e-07
4.25978e-06
1.0734e-06
4.27622e-06
9.78584e-07
4.20666e-06
8.47513e-07
4.08262e-06
7.17591e-07
3.93917e-06
5.88858e-07
3.79927e-06
4.78101e-07
3.67225e-06
3.8841e-07
3.5609e-06
3.15778e-07
3.46531e-06
2.56752e-07
3.38437e-06
2.0847e-07
3.3166e-06
1.68216e-07
3.26062e-06
1.33667e-07
3.21534e-06
1.02809e-07
3.17992e-06
7.37533e-08
3.15351e-06
4.38577e-08
3.13407e-06
1.13878e-08
-2.9664e-08
3.11263e-06
4.35364e-06
5.22759e-07
4.51286e-06
9.14202e-07
4.60468e-06
8.86818e-07
4.65196e-06
8.00259e-07
4.65335e-06
7.16218e-07
4.61841e-06
6.23803e-07
4.56222e-06
5.34301e-07
4.49569e-06
4.54932e-07
4.42593e-06
3.85537e-07
4.35766e-06
3.25015e-07
4.29378e-06
2.72353e-07
4.23582e-06
2.26171e-07
4.18455e-06
1.84939e-07
4.14025e-06
1.47103e-07
4.10284e-06
1.11161e-07
4.0716e-06
7.50956e-08
4.0446e-06
3.83945e-08
-2.05762e-09
4.01699e-06
4.62747e-06
4.0432e-07
4.75854e-06
7.82851e-07
4.8519e-06
7.93265e-07
4.92531e-06
7.26711e-07
4.97824e-06
6.63189e-07
5.00841e-06
5.93566e-07
5.0199e-06
5.22763e-07
5.01732e-06
4.57484e-07
5.00438e-06
3.98453e-07
4.98451e-06
3.44864e-07
4.96068e-06
2.96172e-07
4.93514e-06
2.51697e-07
4.90953e-06
2.10544e-07
4.88494e-06
1.71686e-07
4.86192e-06
1.34182e-07
4.84021e-06
9.67995e-08
4.8187e-06
5.98966e-08
2.1956e-08
4.79469e-06
4.92564e-06
3.11384e-07
5.03678e-06
6.71749e-07
5.12273e-06
7.07353e-07
5.19034e-06
6.59133e-07
5.24769e-06
6.05861e-07
5.29355e-06
5.47716e-07
5.32907e-06
4.87254e-07
5.35608e-06
4.30474e-07
5.37568e-06
3.78855e-07
5.38895e-06
3.31595e-07
5.39713e-06
2.8799e-07
5.40138e-06
2.4745e-07
5.40264e-06
2.0928e-07
5.40159e-06
1.7273e-07
5.39857e-06
1.37206e-07
5.39329e-06
1.02074e-07
5.38517e-06
6.80187e-08
3.46823e-08
5.37244e-06
5.24742e-06
2.43538e-07
5.35211e-06
5.66956e-07
5.43514e-06
6.2424e-07
5.49763e-06
5.96557e-07
5.55024e-06
5.53174e-07
5.59455e-06
5.03341e-07
5.63188e-06
4.49881e-07
5.66396e-06
3.98349e-07
5.69173e-06
3.51049e-07
5.71567e-06
3.07629e-07
5.73621e-06
2.67433e-07
5.75371e-06
2.29924e-07
5.76845e-06
1.94526e-07
5.78051e-06
1.60658e-07
5.78979e-06
1.27919e-07
5.79581e-06
9.60462e-08
5.79816e-06
6.5662e-08
3.71237e-08
5.79571e-06
5.60179e-06
1.93076e-07
5.69959e-06
4.69207e-07
5.78024e-06
5.43637e-07
5.84243e-06
5.34395e-07
5.8937e-06
5.0192e-07
5.9368e-06
4.60257e-07
5.9733e-06
4.13398e-07
6.00498e-06
3.66669e-07
6.03312e-06
3.22922e-07
6.05833e-06
2.82415e-07
6.08102e-06
2.44743e-07
6.10142e-06
2.0952e-07
6.11961e-06
1.76336e-07
6.13548e-06
1.44782e-07
6.14878e-06
1.14609e-07
6.15906e-06
8.57629e-08
6.166e-06
5.87156e-08
3.40478e-08
6.16908e-06
5.9894e-06
1.53472e-07
6.07531e-06
3.83316e-07
6.15283e-06
4.66131e-07
6.21613e-06
4.71073e-07
6.26889e-06
4.49138e-07
6.31334e-06
4.15776e-07
6.35095e-06
3.75764e-07
6.38338e-06
3.34209e-07
6.41201e-06
2.94271e-07
6.43764e-06
2.56762e-07
6.46075e-06
2.21615e-07
6.48162e-06
1.88635e-07
6.50035e-06
1.57595e-07
6.51686e-06
1.28257e-07
6.53096e-06
1.00501e-07
6.54234e-06
7.43765e-08
6.55082e-06
5.02315e-08
2.85814e-08
6.55628e-06
6.40843e-06
1.21866e-07
6.48135e-06
3.10441e-07
6.55397e-06
3.93552e-07
6.61718e-06
4.07892e-07
6.67167e-06
3.9467e-07
6.71851e-06
3.68936e-07
6.75858e-06
3.357e-07
6.79318e-06
2.99615e-07
6.82355e-06
2.639e-07
6.85054e-06
2.29762e-07
6.8747e-06
1.97452e-07
6.89634e-06
1.66975e-07
6.91564e-06
1.38291e-07
6.93259e-06
1.11294e-07
6.94711e-06
8.59807e-08
6.95904e-06
6.2433e-08
6.96835e-06
4.09138e-08
2.18053e-08
6.97513e-06
5.76298e-06
9.97352e-08
5.8152e-06
2.58291e-07
5.87193e-06
3.36872e-07
5.92395e-06
3.55893e-07
5.97029e-06
3.48351e-07
6.01121e-06
3.28022e-07
6.04696e-06
2.99961e-07
6.07817e-06
2.68401e-07
6.10566e-06
2.36414e-07
6.13005e-06
2.05363e-07
6.15179e-06
1.75705e-07
6.17117e-06
1.47608e-07
6.18833e-06
1.21122e-07
6.20336e-06
9.6272e-08
6.21624e-06
7.30944e-08
6.22697e-06
5.17086e-08
6.23558e-06
3.23029e-08
1.51681e-08
6.24222e-06
7.01918e-06
7.87201e-08
7.07033e-06
2.07182e-07
7.1295e-06
2.77737e-07
7.18627e-06
2.99144e-07
7.23861e-06
2.96025e-07
7.28609e-06
2.80553e-07
7.32847e-06
2.57579e-07
7.36609e-06
2.30791e-07
7.39953e-06
2.02966e-07
7.42934e-06
1.75539e-07
7.45595e-06
1.49113e-07
7.47962e-06
1.23939e-07
7.50055e-06
1.00196e-07
7.51886e-06
7.79619e-08
7.53463e-06
5.73406e-08
7.5479e-06
3.84362e-08
7.55882e-06
2.13919e-08
6.415e-09
7.56758e-06
8.55042e-06
5.91565e-08
8.59937e-06
1.58261e-07
8.65965e-06
2.17493e-07
8.72016e-06
2.3864e-07
8.77775e-06
2.38459e-07
8.83134e-06
2.26969e-07
8.88024e-06
2.08685e-07
8.92442e-06
1.86613e-07
8.96421e-06
1.63173e-07
9.00002e-06
1.39743e-07
9.03214e-06
1.16994e-07
9.06084e-06
9.52526e-08
9.08631e-06
7.47447e-08
9.10868e-06
5.55971e-08
9.12809e-06
3.79331e-08
9.14469e-06
2.18471e-08
9.15866e-06
7.42796e-09
-5.17062e-09
9.17026e-06
1.04171e-05
4.12497e-08
1.04633e-05
1.12114e-07
1.05236e-05
1.5717e-07
1.05871e-05
1.7518e-07
1.06494e-05
1.76156e-07
1.07088e-05
1.67659e-07
1.0764e-05
1.5344e-07
1.08147e-05
1.35918e-07
1.08609e-05
1.16947e-07
1.09029e-05
9.77901e-08
1.09408e-05
7.90761e-08
1.09749e-05
6.11858e-08
1.10053e-05
4.43202e-08
1.10323e-05
2.86613e-08
1.10559e-05
1.42938e-08
1.10765e-05
1.31958e-09
1.10941e-05
-1.02392e-08
-2.02511e-08
1.11092e-05
1.26932e-05
2.48619e-08
1.27368e-05
6.85233e-08
1.27967e-05
9.72355e-08
1.28629e-05
1.09065e-07
1.29298e-05
1.09219e-07
1.2995e-05
1.02481e-07
1.30568e-05
9.16369e-08
1.31144e-05
7.83423e-08
1.31674e-05
6.39161e-08
1.32159e-05
4.92743e-08
1.32601e-05
3.4978e-08
1.32999e-05
2.13237e-08
1.33357e-05
8.52914e-09
1.33676e-05
-3.28515e-09
1.3396e-05
-1.40176e-08
1.34209e-05
-2.36235e-08
1.34427e-05
-3.20821e-08
-3.93158e-08
1.34618e-05
1.54686e-05
9.416e-09
1.5511e-05
2.61913e-08
1.55715e-05
3.66825e-08
1.56411e-05
3.95115e-08
1.57136e-05
3.6712e-08
1.57856e-05
3.04799e-08
1.5855e-05
2.22446e-08
1.59205e-05
1.28623e-08
1.59814e-05
3.00639e-09
1.60375e-05
-6.82508e-09
1.60887e-05
-1.63076e-08
1.61353e-05
-2.52533e-08
1.61774e-05
-3.35341e-08
1.62151e-05
-4.10688e-08
1.62489e-05
-4.7802e-08
1.6279e-05
-5.3705e-08
1.63057e-05
-5.87831e-08
-6.29713e-08
1.63293e-05
1.88534e-05
-6.32711e-09
1.88978e-05
-1.81969e-08
1.89628e-05
-2.83446e-08
1.90394e-05
-3.70835e-08
1.91207e-05
-4.46248e-08
1.92025e-05
-5.1311e-08
1.92821e-05
-5.73682e-08
1.93578e-05
-6.28948e-08
1.94287e-05
-6.79277e-08
1.94944e-05
-7.24896e-08
1.95547e-05
-7.65957e-08
1.96096e-05
-8.02487e-08
1.96595e-05
-8.34412e-08
1.97046e-05
-8.61641e-08
1.97452e-05
-8.84095e-08
1.97817e-05
-9.01729e-08
1.98143e-05
-9.1469e-08
-9.22417e-08
1.98436e-05
2.29824e-05
-2.53917e-08
2.30368e-05
-7.25737e-08
2.31164e-05
-1.07967e-07
2.32099e-05
-1.30562e-07
2.33088e-05
-1.43503e-07
2.34079e-05
-1.50466e-07
2.35042e-05
-1.53692e-07
2.35957e-05
-1.54443e-07
2.36813e-05
-1.53554e-07
2.37605e-05
-1.51726e-07
2.38333e-05
-1.49362e-07
2.38997e-05
-1.46717e-07
2.39602e-05
-1.43904e-07
2.4015e-05
-1.41003e-07
2.40646e-05
-1.38041e-07
2.41095e-05
-1.35035e-07
2.415e-05
-1.3199e-07
-1.28854e-07
2.41866e-05
1.68288e-05
-4.351e-08
1.68786e-05
-1.22313e-07
1.69487e-05
-1.78021e-07
1.70276e-05
-2.09334e-07
1.71081e-05
-2.24057e-07
1.71871e-05
-2.29348e-07
1.72623e-05
-2.29008e-07
1.73329e-05
-2.24946e-07
1.7398e-05
-2.18747e-07
1.74578e-05
-2.11491e-07
1.75123e-05
-2.03906e-07
1.75619e-05
-1.96291e-07
1.76068e-05
-1.88872e-07
1.76475e-05
-1.81714e-07
1.76843e-05
-1.74882e-07
1.77176e-05
-1.68354e-07
1.77478e-05
-1.62134e-07
-1.56139e-07
1.7775e-05
1.46564e-05
-6.53662e-08
1.4715e-05
-1.80812e-07
1.47931e-05
-2.56055e-07
1.48759e-05
-2.9203e-07
1.49569e-05
-3.04987e-07
1.50339e-05
-3.06332e-07
1.51057e-05
-3.00733e-07
1.51714e-05
-2.90728e-07
1.52312e-05
-2.78477e-07
1.52852e-05
-2.65538e-07
1.5334e-05
-2.52658e-07
1.53779e-05
-2.40231e-07
1.54175e-05
-2.2843e-07
1.54531e-05
-2.17353e-07
1.54852e-05
-2.06997e-07
1.55142e-05
-1.97334e-07
1.55403e-05
-1.88302e-07
-1.7981e-07
1.5564e-05
1.27684e-05
-9.35946e-08
1.28414e-05
-2.53868e-07
1.29312e-05
-3.45694e-07
1.30195e-05
-3.8029e-07
1.31017e-05
-3.87102e-07
1.31771e-05
-3.81748e-07
1.32452e-05
-3.68817e-07
1.3306e-05
-3.51405e-07
1.33599e-05
-3.32385e-07
1.34078e-05
-3.13462e-07
1.34505e-05
-2.95337e-07
1.34886e-05
-2.78302e-07
1.35226e-05
-2.62473e-07
1.35532e-05
-2.47883e-07
1.35806e-05
-2.34448e-07
1.36054e-05
-2.22083e-07
1.36277e-05
-2.10665e-07
-2.00051e-07
1.3648e-05
1.11284e-05
-1.31061e-07
1.1222e-05
-3.4745e-07
1.13243e-05
-4.48016e-07
1.14166e-05
-4.72532e-07
1.14978e-05
-4.6834e-07
1.15695e-05
-4.53394e-07
1.1632e-05
-4.31316e-07
1.16864e-05
-4.05753e-07
1.1734e-05
-3.79982e-07
1.1776e-05
-3.55475e-07
1.18133e-05
-3.32632e-07
1.18466e-05
-3.11563e-07
1.18764e-05
-2.92299e-07
1.19033e-05
-2.74734e-07
1.19276e-05
-2.58733e-07
1.19496e-05
-2.4411e-07
1.19697e-05
-2.30704e-07
-2.1832e-07
1.19879e-05
9.70661e-06
-1.82464e-07
9.82475e-06
-4.65616e-07
9.93585e-06
-5.59101e-07
1.00275e-05
-5.64236e-07
1.01057e-05
-5.46518e-07
1.01734e-05
-5.21054e-07
1.02316e-05
-4.89592e-07
1.02823e-05
-4.56417e-07
1.0327e-05
-4.24702e-07
1.03668e-05
-3.95264e-07
1.04023e-05
-3.68138e-07
1.04341e-05
-3.43325e-07
1.04626e-05
-3.20748e-07
1.04881e-05
-3.0025e-07
1.05109e-05
-2.81604e-07
1.05315e-05
-2.6463e-07
1.05499e-05
-2.49096e-07
-2.34937e-07
1.05665e-05
8.48053e-06
-2.57643e-07
8.62039e-06
-6.055e-07
8.73653e-06
-6.75278e-07
8.82871e-06
-6.56441e-07
8.90949e-06
-6.27324e-07
8.97999e-06
-5.91585e-07
9.04066e-06
-5.50269e-07
9.09307e-06
-5.08827e-07
9.13817e-06
-4.6981e-07
9.1764e-06
-4.33492e-07
9.20821e-06
-3.99952e-07
9.23418e-06
-3.69287e-07
9.25488e-06
-3.41453e-07
9.27089e-06
-3.16255e-07
9.28274e-06
-2.93456e-07
9.29098e-06
-2.72876e-07
9.29609e-06
-2.54193e-07
-2.37616e-07
9.29876e-06
7.42355e-06
-3.63919e-07
7.58971e-06
-7.71682e-07
7.7189e-06
-8.04506e-07
7.82514e-06
-7.62706e-07
7.9149e-06
-7.17099e-07
7.98369e-06
-6.60381e-07
8.03199e-06
-5.98586e-07
8.06246e-06
-5.39304e-07
8.07731e-06
-4.84671e-07
8.07883e-06
-4.35025e-07
8.06948e-06
-3.90603e-07
8.05156e-06
-3.5137e-07
8.02705e-06
-3.16936e-07
7.99757e-06
-2.86776e-07
7.96445e-06
-2.60339e-07
7.92875e-06
-2.37173e-07
7.89131e-06
-2.16757e-07
-1.991e-07
7.8528e-06
6.52278e-06
-5.16635e-07
6.72811e-06
-9.77035e-07
6.87029e-06
-9.46695e-07
6.95665e-06
-8.491e-07
6.98541e-06
-7.45867e-07
6.96393e-06
-6.38918e-07
6.90759e-06
-5.42253e-07
6.82931e-06
-4.61026e-07
6.73798e-06
-3.93336e-07
6.63995e-06
-3.36998e-07
6.53976e-06
-2.90405e-07
6.4404e-06
-2.52005e-07
6.34373e-06
-2.20267e-07
6.25084e-06
-1.9389e-07
6.16234e-06
-1.71832e-07
6.07842e-06
-1.53261e-07
5.99919e-06
-1.37518e-07
-1.24079e-07
5.92418e-06
5.80584e-06
-7.77012e-07
5.95925e-06
-1.13045e-06
5.947e-06
-9.34467e-07
5.81548e-06
-7.17605e-07
5.61587e-06
-5.46254e-07
5.39365e-06
-4.16706e-07
5.17609e-06
-3.24693e-07
4.97452e-06
-2.59446e-07
4.79236e-06
-2.11172e-07
4.62982e-06
-1.74448e-07
4.4856e-06
-1.46185e-07
4.35777e-06
-1.24173e-07
4.24426e-06
-1.06753e-07
4.14314e-06
-9.2757e-08
4.05268e-06
-8.13738e-08
3.97138e-06
-7.19549e-08
3.89804e-06
-6.41646e-08
-5.73381e-08
3.8313e-06
5.04158e-06
-9.90986e-07
4.75313e-06
-8.42008e-07
4.31637e-06
-4.97718e-07
3.88725e-06
-2.88504e-07
3.52412e-06
-1.83123e-07
3.2373e-06
-1.29895e-07
3.01329e-06
-1.0068e-07
2.83502e-06
-8.11707e-08
2.69e-06
-6.61511e-08
2.56994e-06
-5.43788e-08
2.46901e-06
-4.52405e-08
2.38297e-06
-3.8132e-08
2.30877e-06
-3.25426e-08
2.24411e-06
-2.8092e-08
2.18725e-06
-2.45154e-08
2.13686e-06
-2.1558e-08
2.09189e-06
-1.91895e-08
-1.69668e-08
2.05153e-06
3.21169e-06
2.36968e-06
1.87196e-06
1.58346e-06
1.40034e-06
1.27044e-06
1.16976e-06
1.08859e-06
1.02244e-06
9.68061e-07
9.22821e-07
8.84689e-07
8.52147e-07
8.24055e-07
7.9954e-07
7.77983e-07
7.58795e-07
7.41828e-07
2.15587e-10
-2.1652e-10
8.33316e-10
-6.19074e-10
1.75378e-09
-9.22378e-10
2.85616e-09
-1.10355e-09
4.02698e-09
-1.17253e-09
5.17214e-09
-1.14625e-09
6.21346e-09
-1.043e-09
7.09544e-09
-8.8299e-10
7.77837e-09
-6.844e-10
8.2426e-09
-4.6508e-10
8.47986e-09
-2.38397e-10
8.49556e-09
-1.64026e-11
8.30054e-09
1.94209e-10
7.9125e-09
3.87393e-10
7.34971e-09
5.62171e-10
6.63198e-09
7.16952e-10
5.7768e-09
8.5446e-10
4.80045e-09
9.75331e-10
3.71582e-09
1.08392e-09
2.53302e-09
1.18142e-09
1.25976e-09
1.27245e-09
-9.89905e-11
1.35727e-09
-1.53926e-09
1.43962e-09
-3.05993e-09
1.51911e-09
-4.66003e-09
1.59978e-09
-6.3433e-09
1.68152e-09
-8.11266e-09
1.76892e-09
-9.97607e-09
1.86152e-09
-1.19395e-08
1.96342e-09
-1.40146e-08
2.07321e-09
-1.62091e-08
2.19447e-09
-1.85361e-08
2.32535e-09
-2.10048e-08
2.46909e-09
-2.36299e-08
2.62346e-09
-2.64213e-08
2.79167e-09
-2.93946e-08
2.97157e-09
-3.25606e-08
3.16642e-09
-3.59364e-08
3.3742e-09
-3.9534e-08
3.5982e-09
-4.3372e-08
3.83655e-09
-4.74638e-08
4.09259e-09
-5.18298e-08
4.36456e-09
-5.64849e-08
4.65579e-09
-6.14512e-08
4.96472e-09
-6.67456e-08
5.29471e-09
-7.23919e-08
5.6444e-09
-7.84089e-08
6.01703e-09
-8.48222e-08
6.41093e-09
-9.16515e-08
6.82894e-09
-9.89231e-08
7.26917e-09
-1.06658e-07
7.7341e-09
-1.14882e-07
8.22193e-09
-1.23618e-07
8.73512e-09
-1.32893e-07
9.27213e-09
-1.4273e-07
9.83564e-09
-1.53156e-07
1.04231e-08
-1.64193e-07
1.10356e-08
-1.75867e-07
1.16707e-08
-1.88198e-07
1.23289e-08
-2.01209e-07
1.30074e-08
-2.14917e-07
1.3706e-08
-2.29342e-07
1.44216e-08
-2.44497e-07
1.51531e-08
-2.60398e-07
1.58972e-08
-2.77053e-07
1.6652e-08
-2.9447e-07
1.74139e-08
-3.12653e-07
1.81799e-08
-3.31603e-07
1.89463e-08
-3.51316e-07
1.97095e-08
-3.71784e-07
2.04657e-08
-3.92997e-07
2.12104e-08
-4.1494e-07
2.19402e-08
-4.37593e-07
2.26498e-08
-4.60931e-07
2.3336e-08
-4.84928e-07
2.39934e-08
-5.0955e-07
2.46189e-08
-5.34762e-07
2.52073e-08
-5.60521e-07
2.57552e-08
-5.86782e-07
2.62572e-08
-6.13497e-07
2.67115e-08
-6.40615e-07
2.71128e-08
-6.68078e-07
2.74599e-08
-6.95831e-07
2.77482e-08
-7.23811e-07
2.79773e-08
-7.51959e-07
2.81425e-08
-7.80208e-07
2.82445e-08
-8.08493e-07
2.82786e-08
-8.36736e-07
2.82421e-08
-8.64861e-07
2.81297e-08
-8.92794e-07
2.79463e-08
-9.20477e-07
2.76938e-08
-9.47842e-07
2.73693e-08
-9.74809e-07
2.69707e-08
-1.0013e-06
2.64969e-08
-1.02725e-06
2.59491e-08
-1.05258e-06
2.53271e-08
-1.07721e-06
2.46322e-08
-1.10107e-06
2.38643e-08
-1.12409e-06
2.30254e-08
-1.14621e-06
2.21154e-08
-1.16735e-06
2.11379e-08
-1.18745e-06
2.00921e-08
-1.20645e-06
1.89829e-08
-1.22428e-06
1.78057e-08
-1.24088e-06
1.65693e-08
-1.25618e-06
1.52678e-08
-1.27011e-06
1.39132e-08
-1.28263e-06
1.24986e-08
-1.29368e-06
1.10361e-08
-1.30321e-06
9.51707e-09
-1.31117e-06
7.95481e-09
-1.31752e-06
6.33776e-09
-1.32218e-06
4.66077e-09
-1.32509e-06
2.89495e-09
-1.32614e-06
1.0591e-09
-1.32534e-06
-8.08341e-10
-1.3227e-06
-2.63413e-09
-1.31826e-06
-4.43017e-09
-1.31203e-06
-6.21868e-09
-1.304e-06
-8.01335e-09
-1.29418e-06
-9.8058e-09
-1.28258e-06
-1.16029e-08
-1.26918e-06
-1.33962e-08
-1.254e-06
-1.51861e-08
-1.23703e-06
-1.69596e-08
-1.21831e-06
-1.87195e-08
-1.19784e-06
-2.04569e-08
-1.17565e-06
-2.2173e-08
-1.15177e-06
-2.38587e-08
-1.12624e-06
-2.55127e-08
-1.09909e-06
-2.71282e-08
-1.07037e-06
-2.87025e-08
-1.04011e-06
-3.02312e-08
-1.00838e-06
-3.17071e-08
-9.7523e-07
-3.31286e-08
-9.40715e-07
-3.44913e-08
-9.049e-07
-3.57956e-08
-8.67847e-07
-3.7035e-08
-8.29629e-07
-3.82103e-08
-7.90312e-07
-3.93146e-08
-7.49973e-07
-4.03453e-08
-7.08685e-07
-4.12934e-08
-6.66534e-07
-4.21567e-08
-6.236e-07
-4.29368e-08
-5.79971e-07
-4.36335e-08
-5.3573e-07
-4.42424e-08
-4.90967e-07
-4.47647e-08
-4.45768e-07
-4.51976e-08
-4.00227e-07
-4.55414e-08
-3.54432e-07
-4.57913e-08
-3.08485e-07
-4.59444e-08
-2.6249e-07
-4.59904e-08
-2.1657e-07
-4.59166e-08
-1.70865e-07
-4.56987e-08
-1.25553e-07
-4.53075e-08
-8.08402e-08
-4.47049e-08
-3.69534e-08
-4.38806e-08
5.93966e-09
-4.28835e-08
4.75687e-08
-4.16212e-08
8.77532e-08
-4.01738e-08
1.26489e-07
-3.87269e-08
1.63877e-07
-3.73758e-08
1.99989e-07
-3.6103e-08
2.34875e-07
-3.48735e-08
2.68549e-07
-3.36632e-08
3.01017e-07
-3.24564e-08
3.32272e-07
-3.12447e-08
3.62307e-07
-3.00224e-08
3.911e-07
-2.87823e-08
4.18625e-07
-2.75141e-08
4.44838e-07
-2.6203e-08
4.69674e-07
-2.48241e-08
4.93018e-07
-2.33353e-08
5.14688e-07
-2.16593e-08
5.34364e-07
-1.96672e-08
5.51426e-07
-1.70518e-08
5.64849e-07
-1.34152e-08
5.71634e-07
-6.77734e-09
5.6942e-07
2.22013e-09
3.66759e-08
5.3275e-07
5.31405e-10
-7.5046e-10
1.76146e-09
-1.85121e-09
3.41961e-09
-2.58593e-09
5.28003e-09
-2.9649e-09
7.13161e-09
-3.02967e-09
8.81729e-09
-2.83187e-09
1.01953e-08
-2.4268e-09
1.11826e-08
-1.86934e-09
1.1704e-08
-1.2115e-09
1.17398e-08
-4.99213e-10
1.12668e-08
2.29056e-10
1.0309e-08
9.4372e-10
8.87432e-09
1.62349e-09
7.00915e-09
2.25537e-09
4.7329e-09
2.83282e-09
2.0976e-09
3.3551e-09
-8.79153e-10
3.82502e-09
-4.15006e-09
4.2487e-09
-7.70638e-09
4.63341e-09
-1.15102e-08
4.98762e-09
-1.55642e-08
5.31926e-09
-1.98414e-08
5.63644e-09
-2.43546e-08
5.94578e-09
-2.9087e-08
6.25377e-09
-3.40605e-08
6.56612e-09
-3.92663e-08
6.88922e-09
-4.47327e-08
7.22838e-09
-5.0458e-08
7.58893e-09
-5.64756e-08
7.97464e-09
-6.27895e-08
8.38925e-09
-6.94357e-08
8.83506e-09
-7.64223e-08
9.31454e-09
-8.37872e-08
9.82902e-09
-9.15417e-08
1.03804e-08
-9.97242e-08
1.09696e-08
-1.08349e-07
1.15984e-08
-1.17454e-07
1.22677e-08
-1.27057e-07
1.29795e-08
-1.37197e-07
1.37348e-08
-1.47894e-07
1.45356e-08
-1.59188e-07
1.53829e-08
-1.711e-07
1.62786e-08
-1.83671e-07
1.72236e-08
-1.96925e-07
1.82197e-08
-2.10902e-07
1.9268e-08
-2.25627e-07
2.037e-08
-2.41141e-07
2.15266e-08
-2.57469e-07
2.27385e-08
-2.7465e-07
2.40054e-08
-2.9271e-07
2.53271e-08
-3.11683e-07
2.67026e-08
-3.31593e-07
2.81311e-08
-3.52474e-07
2.9611e-08
-3.74346e-07
3.11418e-08
-3.97237e-07
3.27215e-08
-4.21164e-07
3.43469e-08
-4.46145e-07
3.6012e-08
-4.7219e-07
3.77118e-08
-4.99307e-07
3.94405e-08
-5.27496e-07
4.11928e-08
-5.56758e-07
4.29622e-08
-5.87082e-07
4.47415e-08
-6.18457e-07
4.65228e-08
-6.50862e-07
4.82979e-08
-6.84273e-07
5.00577e-08
-7.18658e-07
5.17929e-08
-7.53976e-07
5.34936e-08
-7.90185e-07
5.51499e-08
-8.27232e-07
5.67515e-08
-8.65059e-07
5.82882e-08
-9.03602e-07
5.97498e-08
-9.42793e-07
6.11262e-08
-9.82555e-07
6.24077e-08
-1.02281e-06
6.35845e-08
-1.06347e-06
6.4648e-08
-1.10444e-06
6.55895e-08
-1.14564e-06
6.6402e-08
-1.18697e-06
6.70773e-08
-1.22833e-06
6.76091e-08
-1.26961e-06
6.79913e-08
-1.31073e-06
6.82199e-08
-1.35156e-06
6.82902e-08
-1.39202e-06
6.81995e-08
-1.43199e-06
6.79445e-08
-1.47138e-06
6.75242e-08
-1.51008e-06
6.69365e-08
-1.54799e-06
6.61809e-08
-1.585e-06
6.5256e-08
-1.62103e-06
6.41643e-08
-1.65597e-06
6.29073e-08
-1.68975e-06
6.14862e-08
-1.72228e-06
5.99022e-08
-1.75346e-06
5.81567e-08
-1.78322e-06
5.62548e-08
-1.81146e-06
5.4199e-08
-1.83813e-06
5.19944e-08
-1.86314e-06
4.96435e-08
-1.88643e-06
4.71522e-08
-1.90793e-06
4.45231e-08
-1.92758e-06
4.17631e-08
-1.94532e-06
3.88751e-08
-1.96111e-06
3.58649e-08
-1.97489e-06
3.27359e-08
-1.98661e-06
2.9495e-08
-1.99623e-06
2.61481e-08
-2.0037e-06
2.27024e-08
-2.00898e-06
1.91637e-08
-2.01204e-06
1.55371e-08
-2.01285e-06
1.1827e-08
-2.01138e-06
8.03513e-09
-2.0076e-06
4.16156e-09
-2.00149e-06
2.12085e-10
-1.99306e-06
-3.77803e-09
-1.98237e-06
-7.79506e-09
-1.96947e-06
-1.1843e-08
-1.95436e-06
-1.59143e-08
-1.93699e-06
-2.0001e-08
-1.91732e-06
-2.40907e-08
-1.89534e-06
-2.81742e-08
-1.87109e-06
-3.22518e-08
-1.84456e-06
-3.63178e-08
-1.8158e-06
-4.03679e-08
-1.78481e-06
-4.43914e-08
-1.75162e-06
-4.83788e-08
-1.71625e-06
-5.23179e-08
-1.67876e-06
-5.62024e-08
-1.63918e-06
-6.00217e-08
-1.59757e-06
-6.37703e-08
-1.55396e-06
-6.74383e-08
-1.50843e-06
-7.10182e-08
-1.46104e-06
-7.44992e-08
-1.41184e-06
-7.78742e-08
-1.36091e-06
-8.11332e-08
-1.30832e-06
-8.42662e-08
-1.25416e-06
-8.72645e-08
-1.1985e-06
-9.01242e-08
-1.14143e-06
-9.28394e-08
-1.08305e-06
-9.54063e-08
-1.02343e-06
-9.78162e-08
-9.62687e-07
-1.00061e-07
-9.00905e-07
-1.02134e-07
-8.38185e-07
-1.04022e-07
-7.74629e-07
-1.05718e-07
-7.10345e-07
-1.07225e-07
-6.45442e-07
-1.08539e-07
-5.8003e-07
-1.09656e-07
-5.14218e-07
-1.10576e-07
-4.48117e-07
-1.11296e-07
-3.81841e-07
-1.11814e-07
-3.15505e-07
-1.12122e-07
-2.49231e-07
-1.12213e-07
-1.83144e-07
-1.1207e-07
-1.17385e-07
-1.11668e-07
-5.21068e-08
-1.10967e-07
1.25117e-08
-1.09916e-07
7.62803e-08
-1.08461e-07
1.38994e-07
-1.06582e-07
2.00511e-07
-1.04386e-07
2.60848e-07
-1.01944e-07
3.2003e-07
-9.93398e-08
3.78038e-07
-9.67194e-08
4.34842e-07
-9.41624e-08
4.90428e-07
-9.16723e-08
5.44788e-07
-8.92144e-08
5.97901e-07
-8.67589e-08
6.49743e-07
-8.42794e-08
7.00279e-07
-8.17626e-08
7.49469e-07
-7.91942e-08
7.97263e-07
-7.65586e-08
8.436e-07
-7.3832e-08
8.88396e-07
-7.09817e-08
9.31541e-07
-6.79509e-08
9.7287e-07
-6.46477e-08
1.01214e-06
-6.09084e-08
1.04894e-06
-5.64496e-08
1.08262e-06
-5.07202e-08
1.11193e-06
-4.27042e-08
1.13534e-06
-3.01787e-08
1.14765e-06
-1.00762e-08
3.81347e-08
1.14621e-06
5.92173e-10
-1.34522e-09
1.8869e-09
-3.14837e-09
3.51829e-09
-4.22267e-09
5.19379e-09
-4.64154e-09
6.66244e-09
-4.50345e-09
7.74718e-09
-3.91672e-09
8.30646e-09
-2.99095e-09
8.26681e-09
-1.82899e-09
7.57271e-09
-5.22084e-10
6.22174e-09
8.53123e-10
4.21102e-09
2.23538e-09
1.57747e-09
3.57906e-09
-1.65605e-09
4.8528e-09
-5.43681e-09
6.03808e-09
-9.73509e-09
7.12684e-09
-1.44978e-08
8.11958e-09
-1.97004e-08
9.02296e-09
-2.52985e-08
9.84822e-09
-3.12792e-08
1.06091e-08
-3.76115e-08
1.13209e-08
-4.42963e-08
1.19988e-08
-5.13165e-08
1.26574e-08
-5.86856e-08
1.33095e-08
-6.6398e-08
1.39668e-08
-7.44762e-08
1.46392e-08
-8.29228e-08
1.53363e-08
-9.17658e-08
1.60665e-08
-1.01014e-07
1.68377e-08
-1.107e-07
1.76562e-08
-1.20837e-07
1.85276e-08
-1.31462e-07
1.94562e-08
-1.42592e-07
2.04459e-08
-1.54265e-07
2.14996e-08
-1.66504e-07
2.26199e-08
-1.79345e-07
2.38091e-08
-1.92815e-07
2.50694e-08
-2.06952e-07
2.64025e-08
-2.21782e-07
2.78105e-08
-2.37344e-07
2.92952e-08
-2.53665e-07
3.08582e-08
-2.70785e-07
3.25008e-08
-2.8873e-07
3.42245e-08
-3.07538e-07
3.603e-08
-3.27236e-07
3.7918e-08
-3.47859e-07
3.98884e-08
-3.69431e-07
4.19414e-08
-3.91983e-07
4.40762e-08
-4.15537e-07
4.62914e-08
-4.40119e-07
4.85841e-08
-4.65744e-07
5.09511e-08
-4.92433e-07
5.33881e-08
-5.20194e-07
5.58903e-08
-5.49038e-07
5.84517e-08
-5.78964e-07
6.10659e-08
-6.09971e-07
6.37254e-08
-6.42049e-07
6.64219e-08
-6.75185e-07
6.91448e-08
-7.09358e-07
7.18818e-08
-7.44541e-07
7.46206e-08
-7.807e-07
7.73489e-08
-8.17795e-07
8.00536e-08
-8.55778e-07
8.2721e-08
-8.94595e-07
8.53365e-08
-9.34186e-07
8.78854e-08
-9.74484e-07
9.03523e-08
-1.01542e-06
9.2722e-08
-1.05691e-06
9.49791e-08
-1.09887e-06
9.71088e-08
-1.14122e-06
9.90964e-08
-1.18386e-06
1.00928e-07
-1.2267e-06
1.02589e-07
-1.26965e-06
1.04069e-07
-1.3126e-06
1.05354e-07
-1.35545e-06
1.06435e-07
-1.39811e-06
1.07302e-07
-1.44047e-06
1.07946e-07
-1.48243e-06
1.08361e-07
-1.52389e-06
1.0854e-07
-1.56477e-06
1.08479e-07
-1.60495e-06
1.08174e-07
-1.64436e-06
1.07621e-07
-1.68289e-06
1.06821e-07
-1.72047e-06
1.05772e-07
-1.757e-06
1.04474e-07
-1.79241e-06
1.0293e-07
-1.82662e-06
1.01141e-07
-1.85955e-06
9.91086e-08
-1.89114e-06
9.68381e-08
-1.9213e-06
9.43341e-08
-1.94998e-06
9.16015e-08
-1.97713e-06
8.86427e-08
-2.00269e-06
8.54614e-08
-2.02659e-06
8.20642e-08
-2.0488e-06
7.84573e-08
-2.06924e-06
7.46487e-08
-2.08789e-06
7.06437e-08
-2.1047e-06
6.64501e-08
-2.11962e-06
6.20735e-08
-2.13262e-06
5.75221e-08
-2.14367e-06
5.2802e-08
-2.15272e-06
4.79201e-08
-2.15975e-06
4.28831e-08
-2.16474e-06
3.76976e-08
-2.16764e-06
3.23737e-08
-2.16844e-06
2.69191e-08
-2.1671e-06
2.13452e-08
-2.16362e-06
1.5658e-08
-2.15797e-06
9.86643e-09
-2.15013e-06
3.97501e-09
-2.1401e-06
-2.00275e-09
-2.1279e-06
-8.05107e-09
-2.11354e-06
-1.41533e-08
-2.09702e-06
-2.03063e-08
-2.07831e-06
-2.65032e-08
-2.05742e-06
-3.2738e-08
-2.03433e-06
-3.90025e-08
-2.00904e-06
-4.52896e-08
-1.98154e-06
-5.15809e-08
-1.95184e-06
-5.7863e-08
-1.91995e-06
-6.41274e-08
-1.8859e-06
-7.0366e-08
-1.8497e-06
-7.65674e-08
-1.81138e-06
-8.27177e-08
-1.77096e-06
-8.88007e-08
-1.72847e-06
-9.48023e-08
-1.68396e-06
-1.00709e-07
-1.63746e-06
-1.0651e-07
-1.58903e-06
-1.12192e-07
-1.53871e-06
-1.17742e-07
-1.48657e-06
-1.23149e-07
-1.43265e-06
-1.28398e-07
-1.37703e-06
-1.33477e-07
-1.31977e-06
-1.38372e-07
-1.26096e-06
-1.43069e-07
-1.20065e-06
-1.47555e-07
-1.13893e-06
-1.51821e-07
-1.0759e-06
-1.55859e-07
-1.01163e-06
-1.59664e-07
-9.4622e-07
-1.63223e-07
-8.79759e-07
-1.66525e-07
-8.12339e-07
-1.69558e-07
-7.44059e-07
-1.72306e-07
-6.75018e-07
-1.74762e-07
-6.05322e-07
-1.76922e-07
-5.35079e-07
-1.78783e-07
-4.64394e-07
-1.80341e-07
-3.93375e-07
-1.81594e-07
-3.22132e-07
-1.82538e-07
-2.50773e-07
-1.83169e-07
-1.79413e-07
-1.83479e-07
-1.08166e-07
-1.83456e-07
-3.71515e-08
-1.83081e-07
3.35059e-08
-1.82321e-07
1.03673e-07
-1.8113e-07
1.73214e-07
-1.79453e-07
2.42001e-07
-1.77244e-07
3.09952e-07
-1.74528e-07
3.7707e-07
-1.715e-07
4.43445e-07
-1.68314e-07
5.0907e-07
-1.6496e-07
5.73847e-07
-1.61491e-07
6.37667e-07
-1.57977e-07
7.00452e-07
-1.54452e-07
7.62149e-07
-1.50906e-07
8.22716e-07
-1.4732e-07
8.82112e-07
-1.4367e-07
9.40294e-07
-1.39939e-07
9.97212e-07
-1.36107e-07
1.05281e-06
-1.3215e-07
1.10701e-06
-1.28034e-07
1.15975e-06
-1.23708e-07
1.21089e-06
-1.19088e-07
1.26028e-06
-1.14034e-07
1.30768e-06
-1.0831e-07
1.35275e-06
-1.01509e-07
1.39493e-06
-9.2903e-08
1.43336e-06
-8.11318e-08
1.46708e-06
-6.38967e-08
1.49376e-06
-3.67509e-08
1.60197e-08
1.51587e-06
4.66725e-10
-1.81469e-09
1.39618e-09
-4.08028e-09
2.41151e-09
-5.2433e-09
3.21148e-09
-5.4427e-09
3.55219e-09
-4.84898e-09
3.28091e-09
-3.64549e-09
2.29592e-09
-2.01034e-09
5.67612e-10
-9.99477e-11
-1.91605e-09
1.95768e-09
-5.12452e-09
4.06281e-09
-9.0338e-09
6.1411e-09
-1.35935e-08
8.14023e-09
-1.87706e-08
1.00266e-08
-2.45131e-08
1.17821e-08
-3.07913e-08
1.34016e-08
-3.75602e-08
1.48898e-08
-4.47997e-08
1.62588e-08
-5.24765e-08
1.75259e-08
-6.05828e-08
1.87115e-08
-6.90985e-08
1.98372e-08
-7.80283e-08
2.09244e-08
-8.73641e-08
2.19934e-08
-9.7121e-08
2.30622e-08
-1.07301e-07
2.41467e-08
-1.17926e-07
2.52606e-08
-1.29007e-07
2.64164e-08
-1.40569e-07
2.76249e-08
-1.52627e-07
2.88957e-08
-1.65211e-07
3.02372e-08
-1.78339e-07
3.16564e-08
-1.92045e-07
3.31592e-08
-2.06348e-07
3.47504e-08
-2.21285e-07
3.6434e-08
-2.36877e-07
3.82134e-08
-2.53161e-07
4.00912e-08
-2.7016e-07
4.20697e-08
-2.8791e-07
4.41508e-08
-3.06434e-07
4.6336e-08
-3.25766e-07
4.86263e-08
-3.4593e-07
5.10226e-08
-3.66955e-07
5.35249e-08
-3.88863e-07
5.6133e-08
-4.1168e-07
5.88457e-08
-4.35423e-07
6.16614e-08
-4.60114e-07
6.45772e-08
-4.85762e-07
6.75895e-08
-5.12382e-07
7.06939e-08
-5.39977e-07
7.38855e-08
-5.68553e-07
7.71579e-08
-5.98107e-07
8.05034e-08
-6.28634e-07
8.39128e-08
-6.60121e-07
8.73755e-08
-6.92551e-07
9.08797e-08
-7.25899e-07
9.44125e-08
-7.60137e-07
9.79603e-08
-7.95226e-07
1.01509e-07
-8.31126e-07
1.05042e-07
-8.67789e-07
1.08543e-07
-9.05162e-07
1.11991e-07
-9.43186e-07
1.1537e-07
-9.81796e-07
1.18662e-07
-1.02092e-06
1.21847e-07
-1.0605e-06
1.24907e-07
-1.10044e-06
1.27822e-07
-1.14066e-06
1.30576e-07
-1.18109e-06
1.33149e-07
-1.22164e-06
1.35525e-07
-1.26222e-06
1.37686e-07
-1.30274e-06
1.39619e-07
-1.34313e-06
1.41308e-07
-1.38328e-06
1.42741e-07
-1.42312e-06
1.43906e-07
-1.46256e-06
1.44793e-07
-1.50152e-06
1.45392e-07
-1.53992e-06
1.45697e-07
-1.57768e-06
1.45701e-07
-1.61472e-06
1.45401e-07
-1.65097e-06
1.44792e-07
-1.68637e-06
1.43873e-07
-1.72084e-06
1.42642e-07
-1.75432e-06
1.411e-07
-1.78675e-06
1.39247e-07
-1.81807e-06
1.37087e-07
-1.84821e-06
1.34622e-07
-1.87714e-06
1.31855e-07
-1.9048e-06
1.28791e-07
-1.93112e-06
1.25434e-07
-1.95608e-06
1.21792e-07
-1.97961e-06
1.17871e-07
-2.00168e-06
1.13675e-07
-2.02224e-06
1.09212e-07
-2.04126e-06
1.04484e-07
-2.0587e-06
9.94999e-08
-2.07451e-06
9.42681e-08
-2.08866e-06
8.87968e-08
-2.10111e-06
8.30936e-08
-2.11182e-06
7.71668e-08
-2.12078e-06
7.10241e-08
-2.12793e-06
6.4674e-08
-2.13326e-06
5.81243e-08
-2.13673e-06
5.13827e-08
-2.13832e-06
4.44577e-08
-2.138e-06
3.73577e-08
-2.13574e-06
3.00949e-08
-2.13152e-06
2.26792e-08
-2.12532e-06
1.51237e-08
-2.11711e-06
7.43612e-09
-2.10689e-06
-3.7062e-10
-2.09464e-06
-8.28569e-09
-2.08036e-06
-1.62926e-08
-2.06403e-06