/*--------------------------------*- C++ -*----------------------------------*\
| =========                 |                                                 |
| \\      /  F ield         | OpenFOAM: The Open Source CFD Toolbox           |
|  \\    /   O peration     | Version:  2412                                  |
|   \\  /    A nd           | Website:  www.openfoam.com                      |
|    \\/     M anipulation  |                                                 |
\*---------------------------------------------------------------------------*/
FoamFile
{
    version     2.0;
    format      ascii;
    arch        "LSB;label=32;scalar=64";
    class       volVectorField;
    location    "302";
    object      U;
}
// * * * * * * * * * * * * * * * * * * * * * * * * * * * * * * * * * * * * * //

dimensions      [0 1 -1 0 0 0 0];

internalField   nonuniform List<vector> 
12225
(
(7.55424 -0.136375 0)
(5.15574 0.100004 0)
(3.80833 0.0630897 0)
(2.9922 0.0248227 0)
(2.55808 0.0152974 0)
(2.29576 0.0124561 0)
(2.10168 0.0101272 0)
(1.9543 0.00774494 0)
(1.84455 0.00583086 0)
(1.76206 0.00447746 0)
(1.6991 0.00344246 0)
(1.6511 0.00254369 0)
(1.61545 0.00168941 0)
(1.59046 0.000824549 0)
(1.57581 -0.000274151 0)
(1.57111 -0.00186443 0)
(1.58231 -0.00590287 0)
(1.57709 -0.0971777 0)
(10.141 0.703777 0)
(9.34208 0.741682 0)
(8.00261 0.432181 0)
(6.75906 0.246017 0)
(5.90533 0.152325 0)
(5.34972 0.104008 0)
(4.95521 0.0781852 0)
(4.65645 0.0612412 0)
(4.42657 0.0483549 0)
(4.24829 0.0384189 0)
(4.10878 0.0306207 0)
(3.99946 0.0240798 0)
(3.91488 0.0181909 0)
(3.85144 0.0124292 0)
(3.80772 0.0061151 0)
(3.78283 -0.00232979 0)
(3.78439 -0.0149989 0)
(3.78484 -0.0677022 0)
(10.251 0.727696 0)
(10.6443 0.897715 0)
(10.3383 0.683218 0)
(9.60598 0.503944 0)
(8.85375 0.37078 0)
(8.22767 0.272107 0)
(7.7272 0.20548 0)
(7.32773 0.16046 0)
(7.00936 0.127957 0)
(6.7549 0.103335 0)
(6.55041 0.0839446 0)
(6.38591 0.0678254 0)
(6.25453 0.0535659 0)
(6.15153 0.0399783 0)
(6.07453 0.0257977 0)
(6.02069 0.0082218 0)
(5.99476 -0.0162785 0)
(5.9681 -0.0726979 0)
(10.1157 0.494723 0)
(10.6769 0.749484 0)
(10.9701 0.695218 0)
(10.8762 0.611804 0)
(10.5813 0.520469 0)
(10.2213 0.427506 0)
(9.85511 0.348208 0)
(9.51165 0.285245 0)
(9.20615 0.235061 0)
(8.94247 0.194577 0)
(8.71822 0.161407 0)
(8.52942 0.133319 0)
(8.37225 0.108393 0)
(8.2435 0.0849244 0)
(8.14097 0.0610879 0)
(8.06103 0.0338295 0)
(8.00587 -0.000508262 0)
(7.94811 -0.0535964 0)
(10.0748 0.367631 0)
(10.5093 0.635057 0)
(10.8758 0.640349 0)
(11.051 0.599978 0)
(11.0847 0.55125 0)
(11.0337 0.490927 0)
(10.9217 0.429528 0)
(10.7714 0.373495 0)
(10.6052 0.323395 0)
(10.4387 0.278843 0)
(10.2804 0.239309 0)
(10.1348 0.203768 0)
(10.0045 0.170926 0)
(9.89052 0.139296 0)
(9.7934 0.107193 0)
(9.71103 0.0719219 0)
(9.6449 0.0316104 0)
(9.57397 -0.0193467 0)
(10.0635 0.289927 0)
(10.3877 0.549992 0)
(10.6696 0.574415 0)
(10.8694 0.546342 0)
(10.9951 0.516228 0)
(11.0822 0.478229 0)
(11.1291 0.435993 0)
(11.1379 0.394632 0)
(11.1182 0.355154 0)
(11.0798 0.317481 0)
(11.0301 0.281605 0)
(10.9743 0.247219 0)
(10.9168 0.21366 0)
(10.8604 0.179937 0)
(10.8074 0.144912 0)
(10.7573 0.106712 0)
(10.7114 0.0650855 0)
(10.6569 0.0172142 0)
(10.05 0.225829 0)
(10.2898 0.471295 0)
(10.5179 0.508458 0)
(10.6874 0.490992 0)
(10.8064 0.468956 0)
(10.9088 0.440667 0)
(10.9942 0.407855 0)
(11.0595 0.375007 0)
(11.1068 0.343395 0)
(11.14 0.312644 0)
(11.1616 0.282426 0)
(11.174 0.25241 0)
(11.1793 0.222049 0)
(11.1791 0.190596 0)
(11.1748 0.157285 0)
(11.1661 0.121035 0)
(11.1533 0.0824105 0)
(11.1304 0.0403328 0)
(10.0344 0.173387 0)
(10.2094 0.402287 0)
(10.4192 0.451372 0)
(10.5663 0.444781 0)
(10.6707 0.427984 0)
(10.7599 0.404575 0)
(10.839 0.376175 0)
(10.9065 0.346949 0)
(10.9638 0.318692 0)
(11.0132 0.291212 0)
(11.056 0.264078 0)
(11.0926 0.23691 0)
(11.1237 0.209204 0)
(11.1495 0.18035 0)
(11.1701 0.149816 0)
(11.1851 0.117081 0)
(11.1936 0.0828948 0)
(11.1938 0.0474319 0)
(10.0225 0.135943 0)
(10.156 0.336803 0)
(10.3423 0.39744 0)
(10.478 0.402114 0)
(10.5761 0.390991 0)
(10.6572 0.371909 0)
(10.7287 0.347088 0)
(10.7903 0.320404 0)
(10.8438 0.29403 0)
(10.8914 0.268167 0)
(10.9344 0.242531 0)
(10.9732 0.216824 0)
(11.0079 0.190674 0)
(11.0386 0.163646 0)
(11.065 0.135421 0)
(11.0865 0.105851 0)
(11.1022 0.0756097 0)
(11.1119 0.0454876 0)
(10.0153 0.109113 0)
(10.1185 0.278648 0)
(10.275 0.344439 0)
(10.4014 0.358178 0)
(10.4971 0.353228 0)
(10.5757 0.338946 0)
(10.6441 0.31804 0)
(10.7031 0.294187 0)
(10.754 0.269782 0)
(10.7992 0.245425 0)
(10.84 0.221059 0)
(10.8769 0.196532 0)
(10.9102 0.171638 0)
(10.9398 0.14613 0)
(10.9657 0.119876 0)
(10.9873 0.0929463 0)
(11.004 0.0659094 0)
(11.0163 0.039645 0)
(10.0105 0.0869248 0)
(10.0901 0.22652 0)
(10.2171 0.292978 0)
(10.3315 0.31285 0)
(10.4237 0.313353 0)
(10.501 0.303766 0)
(10.5687 0.286997 0)
(10.6273 0.266371 0)
(10.6779 0.244328 0)
(10.7225 0.221787 0)
(10.7625 0.198935 0)
(10.7983 0.175781 0)
(10.8304 0.152287 0)
(10.8589 0.128367 0)
(10.8836 0.104044 0)
(10.9045 0.0794906 0)
(10.9211 0.0551926 0)
(10.9342 0.0318861 0)
(10.0078 0.0697812 0)
(10.0707 0.185679 0)
(10.1742 0.248937 0)
(10.2757 0.271759 0)
(10.3622 0.275768 0)
(10.4369 0.269658 0)
(10.5033 0.256338 0)
(10.5617 0.238692 0)
(10.6127 0.219035 0)
(10.6576 0.198432 0)
(10.6976 0.177246 0)
(10.7333 0.155623 0)
(10.7652 0.133648 0)
(10.7932 0.111365 0)
(10.8175 0.0888884 0)
(10.8382 0.0664427 0)
(10.8549 0.0444331 0)
(10.8686 0.0234548 0)
(10.006 0.0557962 0)
(10.0555 0.151209 0)
(10.1399 0.208819 0)
(10.2287 0.232565 0)
(10.3081 0.238766 0)
(10.3787 0.235176 0)
(10.4427 0.224644 0)
(10.4999 0.209663 0)
(10.5507 0.192319 0)
(10.5957 0.173716 0)
(10.6358 0.15433 0)
(10.6717 0.134398 0)
(10.7036 0.114099 0)
(10.7316 0.0935675 0)
(10.756 0.0729792 0)
(10.7767 0.0525782 0)
(10.7939 0.0327035 0)
(10.8084 0.0138369 0)
(10.0046 0.0431153 0)
(10.0428 0.118274 0)
(10.1099 0.167517 0)
(10.1856 0.190232 0)
(10.2567 0.197459 0)
(10.3217 0.195618 0)
(10.3815 0.18743 0)
(10.4362 0.174954 0)
(10.4855 0.159979 0)
(10.5297 0.14357 0)
(10.5694 0.12627 0)
(10.6051 0.108371 0)
(10.6368 0.0901184 0)
(10.6648 0.0716929 0)
(10.6893 0.0533128 0)
(10.7104 0.0352093 0)
(10.7283 0.0176564 0)
(10.7436 0.00104332 0)
(10.0035 0.031499 0)
(10.0326 0.087198 0)
(10.0853 0.126052 0)
(10.1484 0.145653 0)
(10.2109 0.152545 0)
(10.2696 0.151551 0)
(10.3246 0.145072 0)
(10.3757 0.134754 0)
(10.4224 0.122016 0)
(10.4648 0.107831 0)
(10.5032 0.0927421 0)
(10.5378 0.0770882 0)
(10.5688 0.0611183 0)
(10.5964 0.0450572 0)
(10.6207 0.0291068 0)
(10.6419 0.013487 0)
(10.6602 -0.00160995 0)
(10.6762 -0.0158595 0)
(10.0026 0.0208172 0)
(10.0249 0.0579726 0)
(10.0662 0.0849788 0)
(10.1184 0.0993177 0)
(10.1727 0.104314 0)
(10.2254 0.10314 0)
(10.2755 0.0976426 0)
(10.3228 0.0890421 0)
(10.3665 0.0783613 0)
(10.4067 0.0663847 0)
(10.4432 0.0536002 0)
(10.4763 0.0403338 0)
(10.5061 0.0268264 0)
(10.5329 0.0132936 0)
(10.5566 -8.48274e-05 0)
(10.5776 -0.013129 0)
(10.596 -0.0257042 0)
(10.6123 -0.0375561 0)
(10.0021 0.0108296 0)
(10.0196 0.0300974 0)
(10.0529 0.0441358 0)
(10.0967 0.0511664 0)
(10.1442 0.0525924 0)
(10.1916 0.0500716 0)
(10.2375 0.0447388 0)
(10.2813 0.0373285 0)
(10.3224 0.0284755 0)
(10.3603 0.0186787 0)
(10.3951 0.00830173 0)
(10.4268 -0.00241612 0)
(10.4554 -0.013271 0)
(10.4813 -0.0241071 0)
(10.5044 -0.0347733 0)
(10.525 -0.0451492 0)
(10.5434 -0.0551378 0)
(10.5597 -0.064553 0)
(10.0017 0.000954874 0)
(10.0166 0.00215521 0)
(10.0455 0.00203624 0)
(10.0843 -0.000104233 0)
(10.1276 -0.00392238 0)
(10.1716 -0.00900492 0)
(10.2147 -0.0150427 0)
(10.2561 -0.0218185 0)
(10.2952 -0.0291263 0)
(10.3315 -0.0367908 0)
(10.365 -0.0446718 0)
(10.3956 -0.0526621 0)
(10.4234 -0.0606634 0)
(10.4486 -0.0685886 0)
(10.4714 -0.0763551 0)
(10.4918 -0.0838886 0)
(10.5101 -0.0911394 0)
(10.5265 -0.0979642 0)
(10.0017 -0.0101034 0)
(10.0166 -0.0291744 0)
(10.0456 -0.0454381 0)
(10.0846 -0.0583963 0)
(10.1278 -0.0686328 0)
(10.1717 -0.0770432 0)
(10.2145 -0.0842413 0)
(10.2555 -0.0906069 0)
(10.2943 -0.09639 0)
(10.3302 -0.10181 0)
(10.3634 -0.106996 0)
(10.3937 -0.11203 0)
(10.4213 -0.116938 0)
(10.4464 -0.121733 0)
(10.4691 -0.126399 0)
(10.4897 -0.13092 0)
(10.5082 -0.13528 0)
(10.5249 -0.139384 0)
(10.0022 -0.0218921 0)
(10.0211 -0.0624596 0)
(10.0569 -0.0952173 0)
(10.1032 -0.118427 0)
(10.1523 -0.134203 0)
(10.2004 -0.145126 0)
(10.2464 -0.152817 0)
(10.2898 -0.158205 0)
(10.3303 -0.162047 0)
(10.3676 -0.164934 0)
(10.4016 -0.167286 0)
(10.4325 -0.169331 0)
(10.4606 -0.171221 0)
(10.486 -0.17303 0)
(10.5091 -0.17481 0)
(10.5299 -0.176568 0)
(10.5488 -0.17832 0)
(10.5657 -0.179987 0)
(10.003 -0.0344979 0)
(10.0288 -0.0972682 0)
(10.0763 -0.145068 0)
(10.1345 -0.175555 0)
(10.1927 -0.194065 0)
(10.2471 -0.205448 0)
(10.2978 -0.212183 0)
(10.3448 -0.215611 0)
(10.3878 -0.216926 0)
(10.4268 -0.217054 0)
(10.4618 -0.216588 0)
(10.4934 -0.215845 0)
(10.5219 -0.215034 0)
(10.5475 -0.214267 0)
(10.5706 -0.213616 0)
(10.5915 -0.213096 0)
(10.6103 -0.212718 0)
(10.6271 -0.212412 0)
(10.0044 -0.0502724 0)
(10.0419 -0.139533 0)
(10.1084 -0.201666 0)
(10.1835 -0.236383 0)
(10.253 -0.254878 0)
(10.3146 -0.264772 0)
(10.3705 -0.268967 0)
(10.4211 -0.269208 0)
(10.4662 -0.267138 0)
(10.5061 -0.26398 0)
(10.5415 -0.260383 0)
(10.5731 -0.256717 0)
(10.6013 -0.253188 0)
(10.6266 -0.24994 0)
(10.6493 -0.24701 0)
(10.6697 -0.24442 0)
(10.6882 -0.242137 0)
(10.7047 -0.240092 0)
(10.0069 -0.0710757 0)
(10.0628 -0.193422 0)
(10.1577 -0.266963 0)
(10.2531 -0.301367 0)
(10.3337 -0.316645 0)
(10.4012 -0.322701 0)
(10.4607 -0.32236 0)
(10.5134 -0.317921 0)
(10.5594 -0.311613 0)
(10.5997 -0.304768 0)
(10.6352 -0.297958 0)
(10.6669 -0.291468 0)
(10.6953 -0.285473 0)
(10.7208 -0.28006 0)
(10.7438 -0.275234 0)
(10.7646 -0.270959 0)
(10.7836 -0.267173 0)
(10.8006 -0.263749 0)
(10.0122 -0.0992849 0)
(10.0956 -0.262264 0)
(10.2279 -0.339541 0)
(10.3427 -0.366112 0)
(10.4315 -0.374419 0)
(10.5037 -0.374998 0)
(10.5678 -0.369483 0)
(10.6244 -0.360417 0)
(10.6739 -0.350328 0)
(10.7173 -0.340398 0)
(10.7561 -0.331 0)
(10.7908 -0.322306 0)
(10.822 -0.314426 0)
(10.8499 -0.307374 0)
(10.8749 -0.301107 0)
(10.8973 -0.295554 0)
(10.9175 -0.290622 0)
(10.9352 -0.286227 0)
(10.0228 -0.138909 0)
(10.1488 -0.345439 0)
(10.3213 -0.417703 0)
(10.4579 -0.431597 0)
(10.5586 -0.431053 0)
(10.6434 -0.425264 0)
(10.7207 -0.414766 0)
(10.7889 -0.402024 0)
(10.847 -0.389143 0)
(10.8963 -0.376774 0)
(10.9377 -0.365073 0)
(10.972 -0.354164 0)
(10.9997 -0.344134 0)
(11.0214 -0.334977 0)
(11.0378 -0.326639 0)
(11.0497 -0.319096 0)
(11.0575 -0.312209 0)
(11.0619 -0.306233 0)
(10.0327 -0.192014 0)
(10.2289 -0.429932 0)
(10.4571 -0.49537 0)
(10.6385 -0.502644 0)
(10.7667 -0.498053 0)
(10.8687 -0.486231 0)
(10.9487 -0.46908 0)
(11.0034 -0.450111 0)
(11.0338 -0.430915 0)
(11.044 -0.411844 0)
(11.0378 -0.39327 0)
(11.0186 -0.375603 0)
(10.9891 -0.359095 0)
(10.9518 -0.343826 0)
(10.9086 -0.32977 0)
(10.8614 -0.31696 0)
(10.8109 -0.305206 0)
(10.7597 -0.294992 0)
(10.0419 -0.278154 0)
(10.3624 -0.528661 0)
(10.6907 -0.574696 0)
(10.8937 -0.576697 0)
(10.9698 -0.564536 0)
(10.9642 -0.535145 0)
(10.8993 -0.496729 0)
(10.791 -0.457239 0)
(10.6548 -0.419482 0)
(10.5039 -0.384314 0)
(10.3468 -0.352336 0)
(10.1893 -0.323863 0)
(10.0348 -0.298785 0)
(9.88565 -0.27683 0)
(9.74299 -0.257649 0)
(9.60768 -0.240922 0)
(9.47908 -0.226289 0)
(9.35999 -0.21376 0)
(10.1275 -0.496411 0)
(10.6276 -0.77487 0)
(10.8229 -0.719843 0)
(10.671 -0.629495 0)
(10.3295 -0.544902 0)
(9.93014 -0.462327 0)
(9.52857 -0.389429 0)
(9.14825 -0.329857 0)
(8.8008 -0.281845 0)
(8.48976 -0.243154 0)
(8.21369 -0.212092 0)
(7.96905 -0.187199 0)
(7.75209 -0.167146 0)
(7.55913 -0.150836 0)
(7.38688 -0.137457 0)
(7.23261 -0.126351 0)
(7.09302 -0.11711 0)
(6.96916 -0.109154 0)
(10.3186 -0.620337 0)
(10.2355 -0.833938 0)
(9.47915 -0.619337 0)
(8.50008 -0.417136 0)
(7.63787 -0.286774 0)
(6.96861 -0.204851 0)
(6.45166 -0.155622 0)
(6.04198 -0.125432 0)
(5.71093 -0.104711 0)
(5.43922 -0.089271 0)
(5.21253 -0.0774911 0)
(5.02037 -0.0683803 0)
(4.85548 -0.0611801 0)
(4.71244 -0.0553783 0)
(4.58716 -0.0506462 0)
(4.47667 -0.0466828 0)
(4.37787 -0.0434339 0)
(4.29122 -0.0403254 0)
(8.36911 0.165492 0)
(6.36101 -0.106413 0)
(5.00655 -0.10965 0)
(4.0654 -0.0533695 0)
(3.50548 -0.0260276 0)
(3.15589 -0.0188757 0)
(2.89336 -0.0176503 0)
(2.67954 -0.0165632 0)
(2.50542 -0.0146996 0)
(2.36345 -0.0127099 0)
(2.24615 -0.0110094 0)
(2.14778 -0.00963403 0)
(2.0643 -0.00852025 0)
(1.9926 -0.00761245 0)
(1.93034 -0.00688198 0)
(1.87584 -0.00624124 0)
(1.82735 -0.00580245 0)
(1.78526 -0.00522177 0)
(4.28688e-05 -9.08114e-05 -3.6417e-20)
(0.000415083 -0.000284102 4.94327e-20)
(0.00110129 -0.000440802 0)
(0.00202074 -0.000542847 0)
(0.00305279 -0.000593407 0)
(0.00410023 -0.000599875 -4.93427e-20)
(0.00508665 -0.000571274 0)
(0.00595306 -0.000518058 0)
(0.00665734 -0.000449411 0)
(0.0071733 -0.000373962 0)
(0.00748887 -0.000297677 4.95392e-20)
(0.00760319 -0.000225693 0)
(0.00752376 -0.000160434 0)
(0.00726367 -0.000103941 0)
(0.00683915 -5.58584e-05 0)
(0.00626731 -1.63076e-05 5.01144e-20)
(0.0055648 1.65118e-05 0)
(0.00474666 4.31561e-05 0)
(0.00382581 6.56463e-05 0)
(0.00281236 8.41386e-05 0)
(0.00171411 0.000100039 0)
(0.000536495 0.000112422 0)
(-0.000716686 0.000122209 0)
(-0.00204325 0.000129305 5.11153e-20)
(-0.00344232 0.000135948 -5.10899e-20)
(-0.00491532 0.000142191 5.1053e-20)
(-0.00646541 0.00015003 5.10071e-20)
(-0.00809767 0.000159133 0)
(-0.0098186 0.000171132 0)
(-0.0116363 0.000185233 -5.08203e-20)
(-0.0135597 0.00020281 -5.07415e-20)
(-0.0155984 0.000222905 0)
(-0.0177628 0.000246777 0)
(-0.0200637 0.000273383 -5.04498e-20)
(-0.0225126 0.000304012 0)
(-0.0251213 0.000337663 0)
(-0.0279019 0.000375608 5.00648e-20)
(-0.0308673 0.000416909 0)
(-0.034031 0.000462914 4.975e-20)
(-0.0374074 0.000512832 9.91478e-20)
(-0.0410111 0.000568064 0)
(-0.0448581 0.00062791 0)
(-0.0489647 0.000693777 0)
(-0.0533482 0.000765086 0)
(-0.0580268 0.000843276 0)
(-0.0630197 0.000927942 9.64599e-20)
(-0.0683469 0.0010205 9.59091e-20)
(-0.0740292 0.00112049 9.53271e-20)
(-0.080088 0.00122908 0)
(-0.086545 0.00134571 -9.4068e-20)
(-0.0934227 0.00147138 0)
(-0.100743 0.0016055 9.268e-20)
(-0.10853 0.00174883 9.19374e-20)
(-0.116807 0.00190082 0)
(-0.125597 0.00206242 0)
(-0.134925 0.00223359 0)
(-0.144815 0.00241577 8.86532e-20)
(-0.15529 0.00260876 0)
(-0.166372 0.00281271 0)
(-0.178082 0.0030271 0)
(-0.190441 0.00325192 0)
(-0.203467 0.00348671 0)
(-0.217176 0.00373117 0)
(-0.231585 0.00398477 0)
(-0.246705 0.00424687 0)
(-0.262546 0.00451691 -7.95766e-20)
(-0.279115 0.00479386 0)
(-0.296417 0.00507707 0)
(-0.314451 0.00536515 7.61356e-20)
(-0.333216 0.00565739 7.49548e-20)
(-0.352704 0.00595211 0)
(-0.372906 0.00624858 -7.25509e-20)
(-0.393807 0.00654472 7.13303e-20)
(-0.41539 0.0068399 0)
(-0.437631 0.00713182 -6.88582e-20)
(-0.460506 0.00741971 0)
(-0.483985 0.00770087 0)
(-0.508032 0.00797444 6.50864e-20)
(-0.53261 0.00823782 0)
(-0.557677 0.00849062 -6.25383e-20)
(-0.583187 0.00873032 0)
(-0.609093 0.00895702 5.99666e-20)
(-0.635342 0.00916824 5.86719e-20)
(-0.661881 0.00936418 5.73711e-20)
(-0.688655 0.0095425 1.12127e-19)
(-0.715606 0.00970392 -1.09498e-19)
(-0.742675 0.00984535 0)
(-0.769794 0.00996476 0)
(-0.796889 0.0100592 0)
(-0.823891 0.0101316 -9.88107e-20)
(-0.850741 0.0101825 -9.60868e-20)
(-0.877381 0.0102102 9.33372e-20)
(-0.90374 0.0102136 0)
(-0.929745 0.0101917 -8.77518e-20)
(-0.955324 0.0101444 -8.49108e-20)
(-0.980407 0.0100714 -8.20339e-20)
(-1.00492 0.00997258 0)
(-1.0288 0.00984782 0)
(-1.05198 0.00969743 0)
(-1.07438 0.00952131 -7.01073e-20)
(-1.09594 0.00932043 0)
(-1.11659 0.00909429 0)
(-1.13628 0.00884435 6.06344e-20)
(-1.15494 0.00856843 0)
(-1.1725 0.00827012 0)
(-1.18891 0.00794652 5.06118e-20)
(-1.20408 0.00760316 0)
(-1.21797 0.00723682 0)
(-1.23053 0.00685271 -3.99488e-20)
(-1.24169 0.00644531 -3.62362e-20)
(-1.25141 0.00601633 0)
(-1.25963 0.00555303 2.85536e-20)
(-1.2663 0.00504769 0)
(-1.27135 0.00449115 -2.05042e-20)
(-1.27471 0.00390619 0)
(-1.27625 0.00332303 -1.20627e-20)
(-1.27601 0.00276806 -7.68369e-21)
(-1.27406 0.00222811 0)
(-1.27038 0.00168625 0)
(-1.26496 0.001133 0)
(-1.25781 0.000580142 0)
(-1.24893 2.16614e-05 0)
(-1.23829 -0.000542815 0)
(-1.22591 -0.00111147 0)
(-1.21176 -0.00168059 3.13861e-20)
(-1.19587 -0.00225276 -3.68133e-20)
(-1.17824 -0.00282593 0)
(-1.15889 -0.0034013 0)
(-1.13783 -0.0039751 0)
(-1.11509 -0.00454774 0)
(-1.0907 -0.00511693 -1.31798e-19)
(-1.06469 -0.00568258 0)
(-1.0371 -0.006243 1.56925e-19)
(-1.00797 -0.00679619 -1.6989e-19)
(-0.977338 -0.00734173 0)
(-0.945264 -0.00787843 0)
(-0.911796 -0.0084065 0)
(-0.876991 -0.00892408 2.24379e-19)
(-0.840908 -0.00943138 2.3864e-19)
(-0.803611 -0.00992526 0)
(-0.765162 -0.0104037 2.67892e-19)
(-0.725633 -0.0108641 2.82866e-19)
(-0.685095 -0.0113052 -2.98058e-19)
(-0.643628 -0.0117274 0)
(-0.601307 -0.0121297 0)
(-0.558215 -0.0125096 -3.44792e-19)
(-0.514433 -0.012867 0)
(-0.470046 -0.0132001 0)
(-0.425138 -0.0135081 0)
(-0.379797 -0.013788 0)
(-0.334116 -0.0140377 4.25474e-19)
(-0.288194 -0.0142518 4.41824e-19)
(-0.242142 -0.0144239 0)
(-0.196089 -0.014543 4.74507e-19)
(-0.150196 -0.0146001 0)
(-0.104659 -0.0145856 0)
(-0.0596678 -0.0144604 5.23072e-19)
(-0.0153216 -0.014132 0)
(0.0277672 -0.0134163 5.44211e-19)
(0.0695977 -0.0125116 0)
(0.110108 -0.0116466 0)
(0.149362 -0.0108636 5.41982e-19)
(0.187407 -0.0101449 0)
(0.2243 -0.00947197 5.40772e-19)
(0.26007 -0.00883372 0)
(0.294723 -0.00822327 0)
(0.328252 -0.00763735 0)
(0.360646 -0.00707387 -5.37689e-19)
(0.391885 -0.00653042 0)
(0.421941 -0.00600391 5.35878e-19)
(0.450773 -0.00549036 0)
(0.478319 -0.00498336 0)
(0.504487 -0.00447269 0)
(0.529116 -0.00393856 0)
(0.551969 -0.00335267 0)
(0.572486 -0.00262395 0)
(0.590256 -0.00171711 0)
(0.601349 0.000199719 -1.06561e-18)
(0.61354 0.00182601 0)
(0.569869 0.0132782 0)
(0.000112798 -0.000858987 1.16176e-19)
(0.000929425 -0.00220305 -1.62875e-19)
(0.00223307 -0.00315117 0)
(0.00383987 -0.00368884 1.06851e-19)
(0.00553105 -0.00385553 0)
(0.00713637 -0.00371139 5.24605e-20)
(0.00852414 -0.0033219 -1.04098e-19)
(0.00959531 -0.00275434 -1.03407e-19)
(0.01028 -0.00207101 0)
(0.0105363 -0.00132863 -1.0237e-19)
(0.0103459 -0.000572357 -5.09891e-20)
(0.00970942 0.000161653 0)
(0.00864189 0.000850374 0)
(0.00716771 0.00147805 0)
(0.0053165 0.0020396 0)
(0.00312015 0.0025336 -5.02401e-20)
(0.000609658 0.00296595 0)
(-0.00218608 0.00334243 9.96252e-20)
(-0.00524233 0.00367351 0)
(-0.00853865 0.00396682 0)
(-0.0120596 0.00423315 -9.7428e-20)
(-0.0157947 0.00447851 0)
(-0.0197379 0.00471105 9.61451e-20)
(-0.0238881 0.00493417 -4.78091e-20)
(-0.028248 0.0051559 4.75458e-20)
(-0.0328241 0.0053804 -4.72892e-20)
(-0.0376257 0.00561606 -4.70322e-20)
(-0.0426649 0.00586578 0)
(-0.0479568 0.00613597 0)
(-0.0535187 0.00642712 4.62202e-20)
(-0.059369 0.00674379 -4.58817e-20)
(-0.0655284 0.00708502 0)
(-0.072018 0.00745416 0)
(-0.0788607 0.00784941 4.49888e-20)
(-0.0860798 0.00827372 0)
(-0.0936994 0.00872544 0)
(-0.101744 0.00920779 -4.39348e-20)
(-0.11024 0.00971938 0)
(-0.119213 0.0102633 4.30999e-20)
(-0.128692 0.0108384 -8.55286e-20)
(-0.138704 0.0114475 0)
(-0.149277 0.0120897 0)
(-0.160443 0.0127678 -1.65755e-19)
(-0.17223 0.0134809 -1.63931e-19)
(-0.18467 0.014232 -1.62058e-19)
(-0.197793 0.01502 7.99804e-20)
(-0.21163 0.0158478 -7.91723e-20)
(-0.226214 0.0167137 -2.34314e-19)
(-0.241575 0.0176197 1.54087e-19)
(-0.257744 0.0185633 7.60892e-20)
(-0.27475 0.0195462 0)
(-0.292623 0.0205658 -7.39301e-20)
(-0.31139 0.0216243 7.26128e-20)
(-0.331078 0.0227202 0)
(-0.351711 0.0238554 0)
(-0.373313 0.0250233 0)
(-0.395901 0.02622 -6.82757e-20)
(-0.419491 0.0274413 0)
(-0.444094 0.0286855 1.31675e-19)
(-0.469715 0.0299471 0)
(-0.496358 0.031223 1.26991e-19)
(-0.52402 0.0325065 0)
(-0.552696 0.0337937 -1.22304e-19)
(-0.582372 0.035077 0)
(-0.613031 0.0363513 1.17643e-19)
(-0.644648 0.0376087 -5.75498e-20)
(-0.677195 0.0388431 0)
(-0.710635 0.040046 -1.10756e-19)
(-0.744927 0.0412112 -5.43606e-20)
(-0.780021 0.0423301 -5.32414e-20)
(-0.815866 0.0433961 0)
(-0.852401 0.0444011 -5.083e-20)
(-0.889561 0.0453387 -4.99572e-20)
(-0.927277 0.0462011 0)
(-0.965474 0.0469827 4.78327e-20)
(-1.00407 0.047677 -9.3394e-20)
(-1.04299 0.0482797 0)
(-1.08214 0.0487842 -4.47421e-20)
(-1.12144 0.0491863 0)
(-1.16078 0.0494821 1.28072e-19)
(-1.20009 0.0496692 0)
(-1.23926 0.0497446 -1.2222e-19)
(-1.2782 0.049707 -3.98235e-20)
(-1.31681 0.049555 3.874e-20)
(-1.355 0.0492887 7.55952e-20)
(-1.39266 0.0489073 -7.37206e-20)
(-1.42971 0.0484107 0)
(-1.46605 0.0477978 0)
(-1.50158 0.047071 0)
(-1.5362 0.0462347 1.99121e-19)
(-1.56985 0.0452923 6.4543e-20)
(-1.60244 0.0442446 -6.26532e-20)
(-1.63387 0.043093 0)
(-1.66407 0.0418417 -5.87546e-20)
(-1.69296 0.0404941 5.6913e-20)
(-1.72045 0.0390548 5.49666e-20)
(-1.74649 0.0375272 0)
(-1.77098 0.0359161 0)
(-1.79388 0.0342251 0)
(-1.81512 0.0324598 4.69424e-20)
(-1.83463 0.0306239 0)
(-1.85236 0.0287223 -8.55659e-20)
(-1.86826 0.0267586 -1.2189e-19)
(-1.88228 0.0247372 7.69345e-20)
(-1.89436 0.0226636 0)
(-1.90445 0.0205422 3.40661e-20)
(-1.91251 0.0183794 0)
(-1.9185 0.0161774 5.86757e-20)
(-1.92239 0.0139404 -2.70506e-20)
(-1.92413 0.0116678 -2.46162e-20)
(-1.9237 0.00936339 0)
(-1.92106 0.00703066 -5.81939e-20)
(-1.91616 0.00468594 3.36581e-20)
(-1.90909 0.00232865 1.3989e-20)
(-1.89987 -3.62886e-05 0)
(-1.88854 -0.00239289 8.47736e-21)
(-1.87506 -0.00471543 1.7349e-20)
(-1.85934 -0.00699985 0)
(-1.84138 -0.00925022 1.15636e-22)
(-1.82117 -0.0114717 -5.83206e-21)
(-1.79873 -0.0136639 -1.18805e-20)
(-1.77408 -0.0158261 0)
(-1.74721 -0.0179515 0)
(-1.71814 -0.0200372 0)
(-1.68689 -0.0220752 1.82042e-20)
(-1.65348 -0.0240641 2.21278e-20)
(-1.61794 -0.0259974 0)
(-1.58033 -0.0278739 5.68922e-20)
(-1.54066 -0.0296883 6.36684e-20)
(-1.499 -0.0314385 0)
(-1.45538 -0.0331195 7.82547e-20)
(-1.40986 -0.034729 1.68833e-19)
(-1.3625 -0.0362629 -9.23226e-20)
(-1.31336 -0.0377161 -9.76339e-20)
(-1.26251 -0.0390875 0)
(-1.21002 -0.0403753 0)
(-1.15597 -0.0415791 0)
(-1.10043 -0.042697 -1.28165e-19)
(-1.04349 -0.0437276 1.33341e-19)
(-0.985226 -0.0446676 2.83078e-19)
(-0.925737 -0.0455151 -1.49763e-19)
(-0.865105 -0.0462644 1.54771e-19)
(-0.803426 -0.0469145 1.64035e-19)
(-0.740795 -0.0474693 0)
(-0.677318 -0.0479282 0)
(-0.613097 -0.0482906 -1.82733e-19)
(-0.548237 -0.0485583 0)
(-0.482844 -0.0487311 0)
(-0.417024 -0.0488101 4.07904e-19)
(-0.35089 -0.0487928 0)
(-0.284555 -0.048677 2.15578e-19)
(-0.218141 -0.0484552 -2.24043e-19)
(-0.151779 -0.0481174 0)
(-0.0856153 -0.0476438 2.33636e-19)
(-0.0198197 -0.0470064 0)
(0.0454253 -0.0461727 0)
(0.109934 -0.0451508 -2.41448e-19)
(0.173522 -0.0440414 4.80101e-19)
(0.235989 -0.04276 -2.42684e-19)
(0.297498 -0.0412882 0)
(0.358048 -0.0397839 0)
(0.417599 -0.0383367 2.50777e-19)
(0.476113 -0.036959 0)
(0.533578 -0.0356294 2.57687e-19)
(0.589978 -0.0343301 0)
(0.645287 -0.0330471 0)
(0.69947 -0.0317732 0)
(0.752485 -0.0305026 2.71819e-19)
(0.804283 -0.0292293 0)
(0.8548 -0.0279441 -2.77438e-19)
(0.903959 -0.0266348 0)
(0.951657 -0.0252801 0)
(0.99775 -0.0238459 5.69329e-19)
(1.04202 -0.0222706 -5.744e-19)
(1.08416 -0.0204473 0)
(1.12352 -0.0181636 0)
(1.15968 -0.0150179 0)
(1.18877 -0.0100902 1.79094e-18)
(1.21841 -0.00231474 0)
(1.20305 0.018297 -1.23039e-18)
(0.00012804 -0.00200601 -1.47767e-23)
(0.00102449 -0.00478133 2.16371e-19)
(0.00235856 -0.00651466 0)
(0.00388341 -0.00730378 -2.10366e-19)
(0.00532982 -0.00729043 0)
(0.0065004 -0.00662895 0)
(0.00725579 -0.00547458 1.3446e-23)
(0.00750283 -0.00397467 9.61963e-20)
(0.00718543 -0.00226278 9.43424e-20)
(0.00627866 -0.000453243 9.27005e-20)
(0.00478093 0.00136167 0)
(0.0027081 0.00311313 0)
(8.69212e-05 0.00475394 -8.85499e-20)
(-0.00304865 0.00625688 -1.74242e-19)
(-0.00666192 0.00761058 1.71277e-19)
(-0.0107161 0.0088166 0)
(-0.0151767 0.00988504 1.65634e-19)
(-0.0200133 0.0108325 -8.15078e-20)
(-0.025201 0.0116786 0)
(-0.0307203 0.0124445 1.58013e-19)
(-0.0365584 0.0131509 7.79145e-20)
(-0.0427088 0.0138172 -1.53698e-19)
(-0.0491706 0.01446 -7.59332e-20)
(-0.0559483 0.0150941 0)
(-0.0630503 0.015732 1.48401e-19)
(-0.0704883 0.0163861 1.46827e-19)
(-0.0782769 0.0170669 0)
(-0.0864333 0.0177839 1.43777e-19)
(-0.0949768 0.0185444 0)
(-0.103929 0.0193543 1.40747e-19)
(-0.113313 0.0202178 6.96586e-20)
(-0.123154 0.0211381 0)
(-0.133478 0.0221172 0)
(-0.144313 0.0231572 0)
(-0.155686 0.0242591 0)
(-0.167629 0.0254241 0)
(-0.180169 0.0266527 0)
(-0.193339 0.0279464 1.28155e-19)
(-0.207169 0.029306 -1.89846e-19)
(-0.221689 0.0307325 0)
(-0.236932 0.0322266 0)
(-0.252929 0.0337889 0)
(-0.269711 0.0354196 1.52219e-22)
(-0.287308 0.0371191 1.18284e-19)
(-0.305751 0.0388874 2.32979e-19)
(-0.325068 0.0407246 -2.29521e-19)
(-0.345287 0.0426298 -1.12935e-19)
(-0.366433 0.0446008 1.11357e-19)
(-0.38853 0.0466339 -1.78917e-22)
(-0.4116 0.0487262 1.07655e-19)
(-0.43566 0.050873 0)
(-0.460727 0.05307 1.04104e-19)
(-0.486812 0.0553111 -1.92385e-22)
(-0.513922 0.0575909 0)
(-0.542058 0.0599023 0)
(-0.571219 0.0622394 -9.69537e-20)
(-0.601394 0.0645916 0)
(-0.632574 0.0669468 0)
(-0.664737 0.0692937 9.14148e-20)
(-0.697858 0.0716215 1.79718e-19)
(-0.731907 0.0739184 -8.83166e-20)
(-0.766844 0.0761723 0)
(-0.802627 0.0783699 8.48776e-20)
(-0.839205 0.0804983 0)
(-0.876522 0.0825437 8.11256e-20)
(-0.914516 0.0844929 7.98596e-20)
(-0.95312 0.0863323 -1.56084e-19)
(-0.992261 0.088049 -7.62543e-20)
(-1.03186 0.0896304 0)
(-1.07185 0.0910645 1.46594e-19)
(-1.11212 0.0923401 0)
(-1.15261 0.093447 2.10913e-19)
(-1.19321 0.0943757 1.37519e-19)
(-1.23385 0.095118 1.34582e-19)
(-1.27442 0.0956664 -1.31687e-19)
(-1.31483 0.0960156 1.93389e-19)
(-1.35499 0.0961614 0)
(-1.39481 0.0961004 0)
(-1.4342 0.09583 -1.20472e-19)
(-1.47307 0.0953495 -1.76739e-19)
(-1.51132 0.0946593 0)
(-1.54888 0.0937609 5.62914e-20)
(-1.58567 0.0926565 0)
(-1.62159 0.0913496 -1.60701e-19)
(-1.65657 0.0898443 -1.70846e-22)
(-1.69053 0.0881454 1.57379e-22)
(-1.72341 0.0862582 9.91975e-20)
(-1.75513 0.0841887 0)
(-1.78562 0.0819447 -9.3955e-20)
(-1.81481 0.0795332 -1.0118e-22)
(-1.84266 0.0769603 0)
(-1.8691 0.0742322 0)
(-1.89407 0.0713572 0)
(-1.91753 0.0683442 8.07e-20)
(-1.93942 0.0652019 0)
(-1.95969 0.0619384 0)
(-1.97829 0.0585622 0)
(-1.99518 0.0550812 0)
(-2.01032 0.0515038 0)
(-2.02367 0.0478383 6.39103e-20)
(-2.03519 0.0440919 0)
(-2.04485 0.0402722 5.79432e-20)
(-2.05261 0.0363866 5.49279e-20)
(-2.05844 0.0324441 -5.18686e-20)
(-2.06231 0.028453 0)
(-2.06418 0.0244226 -4.56123e-20)
(-2.06404 0.0203594 0)
(-2.06185 0.0162704 -3.91641e-20)
(-2.05759 0.0121607 3.58657e-20)
(-2.05125 0.0080388 9.80522e-20)
(-2.04281 0.00391423 0)
(-2.0323 -0.000200678 7.74593e-20)
(-2.01973 -0.00429029 2.27524e-20)
(-2.00505 -0.00834882 0)
(-1.98825 -0.0123778 3.058e-20)
(-1.96933 -0.0163735 2.3328e-20)
(-1.94826 -0.0203293 -2.3569e-20)
(-1.92503 -0.0242324 0)
(-1.89964 -0.0280743 -7.43018e-23)
(-1.87208 -0.0318518 3.73395e-21)
(-1.84236 -0.0355607 2.17094e-20)
(-1.8105 -0.039196 0)
(-1.77652 -0.0427497 0)
(-1.74041 -0.0462131 0)
(-1.70221 -0.0495782 2.20831e-20)
(-1.66193 -0.0528392 0)
(-1.61962 -0.0559901 0)
(-1.5753 -0.0590264 -3.53322e-20)
(-1.52901 -0.0619425 -3.93843e-20)
(-1.48081 -0.0647329 0)
(-1.43073 -0.0673915 0)
(-1.37883 -0.0699134 -1.03195e-19)
(-1.32517 -0.0722937 0)
(-1.2698 -0.0745265 1.19492e-19)
(-1.2128 -0.0766074 1.26071e-19)
(-1.15423 -0.0785356 0)
(-1.09416 -0.0803086 0)
(-1.03268 -0.0819268 -1.50172e-19)
(-0.969858 -0.0833861 -1.63758e-21)
(-0.905785 -0.0846837 -1.6538e-21)
(-0.840543 -0.0858169 0)
(-0.774222 -0.0867796 -3.6471e-19)
(-0.70691 -0.0875711 0)
(-0.638703 -0.0881941 0)
(-0.569706 -0.0886506 0)
(-0.500017 -0.0889416 2.13073e-19)
(-0.429738 -0.0890699 0)
(-0.358972 -0.0890368 -4.51079e-19)
(-0.287825 -0.0888441 -2.34085e-19)
(-0.216406 -0.0884903 0)
(-0.144823 -0.0879723 -2.47297e-19)
(-0.0731945 -0.087282 0)
(-0.00163904 -0.0864075 0)
(0.069716 -0.0853268 -7.81041e-19)
(0.140735 -0.0840105 5.22518e-19)
(0.211281 -0.0824266 0)
(0.281245 -0.0805895 5.2779e-19)
(0.35054 -0.0786138 -2.67006e-19)
(0.419281 -0.0765965 0)
(0.487526 -0.0745335 0)
(0.555198 -0.0724588 0)
(0.622175 -0.0704088 -8.46774e-19)
(0.688362 -0.0683989 0)
(0.753693 -0.0664192 -2.92391e-19)
(0.818119 -0.064456 0)
(0.881594 -0.0624962 0)
(0.944077 -0.0605314 0)
(1.00551 -0.0585513 0)
(1.06585 -0.0565467 0)
(1.12501 -0.0545029 0)
(1.18292 -0.0523994 -6.43407e-19)
(1.23948 -0.0502011 0)
(1.29453 -0.0478513 -3.30958e-19)
(1.34786 -0.0452518 1.00314e-18)
(1.39921 -0.0422331 0)
(1.448 -0.0384842 0)
(1.49395 -0.0334163 -6.93738e-19)
(1.53417 -0.0259763 -7.04862e-19)
(1.57475 -0.0142311 7.156e-19)
(1.58686 0.0101813 7.33464e-19)
(0.000110067 -0.00307647 -2.31552e-19)
(0.000797506 -0.00703726 -3.22709e-19)
(0.00170614 -0.00922277 -2.11778e-19)
(0.00256935 -0.0098658 -1.03207e-19)
(0.00312146 -0.00924222 0)
(0.00318022 -0.00763944 1.91689e-19)
(0.002636 -0.00533603 -9.19359e-20)
(0.0014345 -0.00258147 0)
(-0.000440586 0.000414295 -8.50954e-20)
(-0.00297931 0.00348409 0)
(-0.00615694 0.00650132 1.58563e-19)
(-0.00994012 0.00937672 0)
(-0.0142919 0.0120532 7.4777e-20)
(-0.0191745 0.0145009 1.45729e-19)
(-0.024552 0.0167115 -1.42247e-19)
(-0.0303914 0.0186935 0)
(-0.0366643 0.0204669 -1.36088e-19)
(-0.0433473 0.0220599 0)
(-0.0504228 0.0235048 0)
(-0.0578788 0.0248355 -1.28425e-19)
(-0.0657094 0.0260846 0)
(-0.0739137 0.0272822 5.66779e-23)
(-0.0824959 0.0284546 0)
(-0.0914644 0.0296243 0)
(-0.100831 0.0308104 -6.54001e-23)
(-0.110611 0.0320297 -1.1719e-19)
(-0.120821 0.0332964 -1.15537e-19)
(-0.131481 0.0346228 -1.14058e-19)
(-0.142612 0.0360189 0)
(-0.154236 0.0374927 -2.21952e-19)
(-0.166376 0.0390503 0)
(-0.17906 0.040696 -1.0793e-19)
(-0.192311 0.0424331 0)
(-0.206159 0.0442639 0)
(-0.220629 0.0461899 1.03461e-19)
(-0.235752 0.0482122 0)
(-0.251553 0.0503314 -1.00498e-19)
(-0.268063 0.0525478 -1.06395e-22)
(-0.285308 0.0548613 1.95196e-19)
(-0.303315 0.0572714 -1.92137e-19)
(-0.32211 0.0597773 0)
(-0.341719 0.0623774 0)