/*--------------------------------*- C++ -*----------------------------------*\
| =========                 |                                                 |
| \\      /  F ield         | OpenFOAM: The Open Source CFD Toolbox           |
|  \\    /   O peration     | Version:  2412                                  |
|   \\  /    A nd           | Website:  www.openfoam.com                      |
|    \\/     M anipulation  |                                                 |
\*---------------------------------------------------------------------------*/
FoamFile
{
    version     2.0;
    format      ascii;
    arch        "LSB;label=32;scalar=64";
    class       volScalarField;
    location    "100";
    object      epsilon;
}
// * * * * * * * * * * * * * * * * * * * * * * * * * * * * * * * * * * * * * //

dimensions      [0 2 -3 0 0 0 0];

internalField   nonuniform List<scalar> 
120000
(
0.062865309
0.13952648
0.2084409
0.25270751
0.27175471
0.2726387
0.26282922
0.24789661
0.23136762
0.21516105
0.20015384
0.18665208
0.17468028
0.16413193
0.1548476
0.14665686
0.13939921
0.13293247
0.1271348
0.1219036
0.11715323
0.1128123
0.10882098
0.10512872
0.10169227
0.098474141
0.095441338
0.092564482
0.08981721
0.08717606
0.084620599
0.082135309
0.079710212
0.077351257
0.075086053
0.073047707
0.071349239
0.070440831
0.070861509
0.073871233
0.0812448
0.092534825
0.10587743
0.11973211
0.13329137
0.14619931
0.15819567
0.16903246
0.17848
0.18637485
0.19263522
0.19725435
0.20023553
0.2015534
0.20130092
0.19962104
0.19664128
0.19225343
0.18611643
0.17726873
0.16423134
0.1472719
0.1292472
0.11314256
0.10015104
0.0901905
0.082777939
0.077333455
0.073277032
0.070153962
0.067646169
0.065536146
0.063678967
0.061982014
0.060388159
0.058865547
0.057398826
0.055982588
0.054616752
0.053303474
0.052045697
0.050846265
0.049707564
0.048631218
0.047618127
0.046668416
0.045781504
0.044958618
0.044196614
0.043493444
0.042847108
0.042255258
0.041715299
0.041224459
0.040779253
0.040374312
0.04000912
0.039661361
0.039381301
0.039020085
0.073781883
0.16721005
0.25309958
0.31291184
0.3449917
0.35563544
0.35230901
0.34113001
0.32634352
0.31051115
0.29498143
0.28036682
0.266883
0.25454858
0.2432943
0.23302031
0.22362325
0.21500699
0.20708546
0.19978243
0.1930303
0.18676872
0.1809434
0.17550515
0.17040909
0.16561399
0.1610817
0.15677677
0.15266612
0.14871913
0.14490782
0.14120877
0.13760359
0.13408957
0.13066595
0.12743688
0.12453252
0.12241607
0.12157377
0.12352369
0.13079405
0.14299498
0.15768713
0.17291662
0.18777282
0.20192978
0.21516943
0.22727496
0.23787341
0.24686553
0.25418989
0.2597729
0.26366549
0.26605788
0.2671026
0.26690628
0.26557321
0.26306474
0.25917808
0.253099
0.24267332
0.2275427
0.20994315
0.19255574
0.17689964
0.16354266
0.15249203
0.14343924
0.1359634
0.12967112
0.124254
0.11948764
0.11521397
0.11132019
0.1077182
0.10436161
0.10122208
0.098280302
0.095522982
0.092940242
0.090524356
0.088268772
0.086167589
0.084215113
0.082405766
0.080733854
0.07919367
0.077777693
0.076482143
0.075301721
0.074230636
0.073262919
0.072393241
0.071620246
0.070932876
0.070321843
0.069781769
0.06928886
0.068884763
0.068405142
0.07346554
0.16634804
0.25143414
0.31111308
0.34431019
0.35730857
0.35719371
0.34961104
0.33843906
0.32603647
0.3136728
0.30194545
0.29107837
0.28110244
0.27195838
0.26355373
0.25579203
0.24858545
0.24185899
0.2355505
0.22960911
0.22399308
0.21866761
0.21360293
0.20877275
0.20415293
0.19972066
0.19545375
0.19133031
0.18732882
0.1834282
0.17960973
0.17585663
0.17216527
0.16853224
0.16499449
0.16158721
0.15870365
0.15652396
0.15679627
0.16237822
0.17237253
0.18389123
0.19514964
0.20577734
0.21595226
0.22574685
0.23508831
0.24384879
0.25187784
0.25900417
0.26499837
0.26944169
0.27251265
0.27439252
0.2752525
0.27528078
0.27455708
0.2731018
0.26993003
0.26262313
0.25046218
0.23558519
0.22047927
0.20647152
0.19408893
0.18338202
0.17421942
0.1663688
0.15956917
0.15359653
0.14827559
0.14347507
0.13909895
0.13507666
0.13135801
0.12790074
0.12466836
0.1216481
0.11883037
0.11620752
0.1137724
0.11151803
0.10943727
0.10752301
0.10576808
0.10416542
0.10270796
0.10138881
0.10020092
0.09913718
0.09819026
0.097351966
0.096609968
0.095960465
0.095399423
0.094918884
0.094500893
0.094159333
0.093780839
0.073416341
0.16595486
0.25015409
0.30842676
0.33999449
0.35159138
0.35066127
0.34296089
0.33228772
0.32084336
0.30974078
0.29945238
0.29011391
0.28169869
0.2741114
0.26723702
0.26096448
0.25519583
0.24984845
0.24485412
0.24015708
0.2357118
0.23148085
0.22743313
0.22354231
0.21978551
0.21614223
0.21259343
0.20912088
0.20570679
0.20233335
0.19898398
0.19564127
0.19229715
0.1889299
0.18556271
0.18208306
0.17885116
0.17527605
0.1740446
0.17416099
0.1757742
0.17762809
0.17897062
0.18038903
0.18255914
0.18565384
0.18958805
0.19423001
0.19942145
0.20497191
0.21086241
0.21623029
0.22081215
0.22470702
0.22801504
0.2308463
0.23324294
0.23520134
0.2362519
0.23370788
0.22583203
0.21518073
0.20434763
0.19431223
0.18538936
0.1776739
0.17107293
0.16536354
0.16035697
0.15592326
0.15195891
0.14838081
0.1451239
0.14213818
0.13938561
0.1368369
0.13446901
0.13226169
0.13019878
0.12827658
0.12649282
0.12484543
0.12333185
0.12194898
0.12069312
0.1195602
0.11854565
0.11764455
0.11685153
0.11616081
0.11556615
0.11506094
0.11463849
0.11429108
0.11401056
0.11378508
0.11361875
0.11348748
0.11337704
0.073400152
0.1657986
0.24964689
0.30737962
0.33831612
0.34926767
0.34775644
0.33959688
0.32861096
0.31700211
0.30587235
0.29567652
0.28653128
0.27839281
0.2711518
0.26468223
0.25886428
0.25359284
0.24877902
0.24434874
0.24024049
0.23640294
0.23279285
0.22937332
0.22611237
0.22298178
0.21995615
0.21701205
0.21412736
0.21128079
0.20845116
0.20561822
0.20275897
0.19985795
0.19687111
0.19382015
0.19044533
0.18721038
0.18214942
0.1793743
0.16657859
0.15476312
0.14423688
0.13403562
0.12488188
0.11731121
0.11124842
0.10647772
0.10283143
0.10010284
0.098091498
0.096932627
0.097746448
0.10016487
0.1036963
0.10797501
0.11273464
0.11786205
0.12350315
0.12910974
0.14093042
0.14682462
0.14844568
0.14834148
0.14728327
0.14576036
0.14419751
0.14278215
0.14153487
0.14042882
0.13943261
0.13851677
0.13765173
0.136825
0.1360296
0.1352615
0.13451625
0.13379225
0.13309197
0.13241914
0.13177903
0.13117749
0.13062025
0.13011235
0.12965791
0.12925995
0.12892043
0.12864014
0.12841885
0.12825509
0.128146
0.12808663
0.12807237
0.12810091
0.12816773
0.1282709
0.12839787
0.12856193
0.12871072
0.12891887
0.073387991
0.16569553
0.24932799
0.30675329
0.33735408
0.34796387
0.34613092
0.33769996
0.32650774
0.31475845
0.30354779
0.29332068
0.28418272
0.27608022
0.26889637
0.26250024
0.2567694
0.25159789
0.24689712
0.24259395
0.23862792
0.23494861
0.23151326
0.22828496
0.2252312
0.22232269
0.21953253
0.2168354
0.21420697
0.21162345
0.20906082
0.20649547
0.20389975
0.20125241
0.19849595
0.19564563
0.19238116
0.189156
0.1836047
0.17958398
0.16538157
0.15274508
0.14095146
0.12865175
0.11679571
0.10613296
0.096715627
0.088419256
0.081126258
0.074715212
0.068925075
0.063669706
0.059383864
0.05647603
0.055168752
0.055524657
0.057490895
0.060533347
0.065115797
0.067130629
0.073869364
0.079561766
0.086108035
0.093052673
0.099197113
0.10435613
0.10876927
0.1126066
0.11595808
0.11889262
0.12146455
0.12371422
0.12567465
0.1273772
0.12885208
0.13012786
0.131231
0.13218593
0.13301541
0.13374037
0.13438007
0.13495188
0.13547136
0.13595208
0.13640571
0.13684196
0.13726873
0.13769213
0.13811663
0.13854513
0.13897892
0.13941633
0.13985331
0.1402904
0.14072884
0.14117042
0.14159866
0.14203724
0.1424129
0.14287311
0.073380706
0.16562879
0.24910736
0.3062965
0.33663319
0.34699049
0.34494738
0.336368
0.32508823
0.31329934
0.30208273
0.29187133
0.28276133
0.27469219
0.26754264
0.2611792
0.25547827
0.2503338
0.24565783
0.24137832
0.23743616
0.23378233
0.23037545
0.22717979
0.2241638
0.22129891
0.21855861
0.21591771
0.21335169
0.21083631
0.20834676
0.20585834
0.20334199
0.20077452
0.19809617
0.19532016
0.19212873
0.18897224
0.18349101
0.17944068
0.16525377
0.15276925
0.14120463
0.12910446
0.11737456
0.1067619
0.097321429
0.088937067
0.081503272
0.07491377
0.06893374
0.063484079
0.058871583
0.055433957
0.053488725
0.053248085
0.054760362
0.057423926
0.061797821
0.063598637
0.068861502
0.072899182
0.078708322
0.0857911
0.092632987
0.09883222
0.1044647
0.10958242
0.11421037
0.11840882
0.12220148
0.1255943
0.12861642
0.13130363
0.13369243
0.13581753
0.13771112
0.13940274
0.14091931
0.1422851
0.14352198
0.14464953
0.14568514
0.146644
0.14753925
0.14838197
0.14918137
0.14994489
0.15067831
0.15138688
0.15207769
0.15274787
0.15339563
0.15402009
0.15461542
0.15518515
0.15571527
0.15624155
0.15665902
0.15718811
0.073376059
0.16558296
0.24894822
0.30595348
0.33607797
0.34623073
0.34401432
0.33530773
0.32394906
0.31212267
0.30090069
0.2907072
0.28163052
0.27360348
0.26649962
0.26018172
0.25452368
0.2494179
0.24477568
0.24052484
0.23660657
0.2329724
0.22958165
0.22639935
0.2233947
0.22053977
0.2178086
0.21517642
0.21261899
0.21011219
0.20763127
0.20515156
0.20264469
0.20008808
0.19742942
0.19468382
0.19159587
0.18860366
0.18378162
0.18082289
0.16791616
0.15647878
0.14665178
0.1370718
0.12825613
0.12070346
0.11435258
0.10903051
0.10463213
0.1010373
0.098124619
0.096075801
0.09512453
0.095479314
0.097250312
0.10114859
0.10635142
0.11234599
0.1187625
0.12541291
0.13748952
0.14335317
0.14556725
0.14678407
0.14752561
0.14809234
0.14878031
0.14967669
0.15073574
0.15187026
0.15304337
0.15424226
0.15543979
0.15661156
0.15774033
0.15881536
0.15983119
0.16078686
0.16168393
0.16252536
0.16331552
0.16405951
0.16476272
0.16543028
0.16606688
0.16667656
0.16726269
0.16782809
0.16837452
0.1689014
0.16940404
0.16988535
0.17034538
0.17078326
0.17119573
0.17158446
0.17193505
0.172283
0.17252803
0.17288902
0.07337285
0.16555029
0.24883103
0.30569235
0.33564326
0.34562323
0.34325573
0.33443438
0.32300233
0.31114012
0.29991231
0.289735
0.28068917
0.27270148
0.26564071
0.25936623
0.25374966
0.24868201
0.24407386
0.23985276
0.23595999
0.23234732
0.22897445
0.22580679
0.22281392
0.21996823
0.21724402
0.21461669
0.21206209
0.20955614
0.2070743
0.20459215
0.20208321
0.19952633
0.19688502
0.19416976
0.19126632
0.18843135
0.18517454
0.18325003
0.18279572
0.18492937
0.18797665
0.19039126
0.19231571
0.19431293
0.19659723
0.19920504
0.202169
0.20550635
0.20920769
0.21328905
0.21777463
0.22267164
0.22792001
0.2330997
0.23818418
0.24320693
0.24793369
0.2520032
0.25228537
0.24716203
0.23940234
0.23160205
0.2245869
0.21854761
0.21354615
0.20949935
0.20624005
0.20360444
0.20146066
0.19970472
0.19825448
0.19704651
0.1960322
0.19517447
0.19444486
0.1938207
0.19328471
0.19282395
0.19242834
0.19208972
0.19180127
0.191557
0.19135155
0.19117999
0.1910378
0.19092032
0.19082317
0.19074211
0.19067282
0.19061117
0.19055304
0.19049443
0.19043071
0.19036003
0.19027317
0.19018698
0.19005347
0.18997146
0.073370552
0.16552643
0.24874318
0.30549078
0.33529895
0.34513307
0.34263549
0.33371262
0.32221268
0.31031386
0.29907485
0.28890547
0.27988093
0.27192299
0.26489652
0.25865799
0.25307698
0.24804311
0.24346615
0.23927321
0.23540542
0.2318146
0.22846057
0.22530898
0.22232957
0.21949493
0.21677948
0.21415869
0.21160844
0.2091047
0.20662311
0.20413976
0.2016304
0.19907678
0.196458
0.19379262
0.191072
0.18851559
0.18631519
0.18558444
0.18878395
0.19691046
0.20780794
0.2191378
0.22998359
0.24024669
0.24990395
0.25890466
0.26723387
0.27489372
0.28187477
0.28816071
0.29374128
0.29862636
0.30284713
0.30618708
0.3090444
0.31162452
0.31391689
0.31553305
0.31371145
0.30746262
0.29857119
0.28921196
0.28043626
0.27260054
0.26581077
0.26000775
0.25503739
0.25073625
0.24696868
0.24362892
0.24063653
0.23793188
0.23547111
0.23322104
0.23115454
0.22925016
0.22749095
0.22586315
0.22435516
0.22295661
0.22165782
0.22044942
0.2193225
0.2182686
0.21727991
0.21634905
0.21546912
0.21463356
0.21383629
0.2130715
0.21233387
0.21161825
0.21092025
0.21023499
0.20956113
0.20888971
0.20824826
0.20754842
0.073368859
0.1655086
0.24867625
0.30533352
0.33502437
0.34473557
0.34212602
0.33311323
0.32155049
0.30961512
0.29836167
0.288195
0.27918559
0.27125097
0.26425256
0.25804417
0.25249344
0.24748869
0.24293885
0.23877059
0.23492484
0.23135343
0.2280163
0.22487921
0.2219121
0.21908769
0.21638049
0.21376602
0.21122018
0.20871895
0.20623823
0.20375465
0.20124611
0.19869784
0.19610213
0.19349116
0.19092496
0.18864608
0.18706964
0.18714548
0.19106778
0.19993893
0.2125241
0.22670199
0.24113194
0.25521636
0.2686044
0.2810348
0.2923532
0.30248124
0.31137754
0.31902647
0.32544359
0.33068265
0.33484242
0.3380458
0.34041336
0.34204286
0.34295533
0.34279572
0.34012402
0.33390194
0.3252052
0.31587639
0.30703988
0.29916673
0.29243128
0.28680661
0.28212903
0.27819299
0.27481099
0.27183133
0.26913929
0.26665394
0.26432116
0.26210135
0.25995227
0.25786502
0.25583786
0.25387179
0.25196803
0.25012645
0.24834445
0.24661873
0.24494576
0.24332196
0.24174396
0.24020841
0.2387121
0.2372519
0.23582497
0.23442867
0.23306082
0.23171902
0.23040253
0.22910626
0.22783971
0.22656791
0.22540278
0.22404931
0.073367579
0.16549503
0.24862461
0.30520991
0.33480442
0.34441227
0.34170674
0.33261509
0.32099546
0.30902521
0.29775587
0.28758833
0.2785891
0.27067218
0.263696
0.25751208
0.25198635
0.24700597
0.24247908
0.23833191
0.23450517
0.23095063
0.22762828
0.22450397
0.22154774
0.21873241
0.21603255
0.2134237
0.21088177
0.20838275
0.20590269
0.20341873
0.20091041
0.19836599
0.19578738
0.1932191
0.19076305
0.18868865
0.18749285
0.18807578
0.19205149
0.20045227
0.21241392
0.22622962
0.2406892
0.2551713
0.26926401
0.28262987
0.29503387
0.3062053
0.3160287
0.32448412
0.33158562
0.33739491
0.34202033
0.34559691
0.34826131
0.35006795
0.3508908
0.3503066
0.34730889
0.34119519
0.33275709
0.32356417
0.31474898
0.30686373
0.30016352
0.2947037
0.29037662
0.28699127
0.28434123
0.28223512
0.28050847
0.27902887
0.27769593
0.27643692
0.27520001
0.27395079
0.27266841
0.27134172
0.26996634
0.26853826
0.26704203
0.26548521
0.26387643
0.26222425
0.26053564
0.25881658
0.25707288
0.2553101
0.25353392
0.25174991
0.24996382
0.24818048
0.24640664
0.24464099
0.24290574
0.24114557
0.23955067
0.2376411
0.073366597
0.16548457
0.24858443
0.3051123
0.33462797
0.34414944
0.34136231
0.33220228
0.320532
0.30852932
0.29724369
0.28707284
0.27808009
0.27017647
0.26321792
0.25705394
0.25154897
0.24658906
0.24208163
0.23795246
0.23414202
0.23060198
0.22729234
0.22417901
0.2212321
0.2184245
0.21573081
0.2131266
0.21058774
0.20809019
0.20561007
0.20312473
0.20061462
0.19806976
0.19549728
0.19294898
0.19054759
0.18857922
0.18757261
0.18840157
0.19240926
0.20046376
0.21188705
0.22516497
0.23913104
0.25317009
0.26688867
0.27996209
0.29215608
0.30331522
0.31333899
0.32215229
0.32957945
0.3356907
0.34059223
0.34441687
0.34729051
0.34924664
0.35013879
0.34953097
0.34657896
0.34070995
0.33258133
0.32362255
0.31495391
0.30715238
0.30050097
0.29509757
0.29088043
0.28769466
0.28535747
0.28368816
0.28252001
0.28170717
0.28112761
0.28068233
0.28029285
0.27989826
0.27945277
0.27892316
0.27828658
0.27752588
0.27663313
0.27560557
0.27444469
0.27315659
0.27173259
0.27017756
0.26850788
0.26673944
0.26488891
0.26297269
0.2610069
0.25900581
0.25698529
0.25495013
0.25293411
0.25087046
0.24900551
0.24673256
0.073365835
0.16547645
0.24855305
0.3050352
0.33448677
0.3439367
0.34108094
0.33186246
0.32014789
0.30811591
0.29681451
0.28663901
0.27765011
0.26975642
0.26281174
0.25666386
0.2511759
0.24623294
0.24174175
0.23762768
0.23383097
0.23030319
0.2270043
0.22390025
0.22096121
0.21816008
0.21547152
0.21287105
0.21033451
0.20783776
0.2053568
0.20286886
0.20035434
0.19780338
0.19522347
0.19266758
0.19026008
0.18828962
0.18728872
0.18813569
0.19218096
0.20029523
0.21178949
0.22513475
0.23915282
0.25321991
0.26693746
0.27997948
0.29211351
0.30319263
0.31312367
0.3218599
0.32921588
0.33525977
0.34010322
0.34388378
0.34673094
0.34868011
0.34958459
0.34900731
0.34609011
0.34023787
0.332101
0.32312036
0.31442877
0.30661007
0.29995395
0.29456575
0.29039053
0.28727915
0.28505334
0.28353527
0.28255905
0.28197723
0.28166385
0.28151374
0.28144073
0.2813753
0.28126264
0.28106068
0.28073849
0.28027457
0.27965564
0.27887504
0.27793167
0.27682925
0.27557435
0.27417579
0.2726328
0.27094411
0.26913072
0.26721494
0.26521954
0.26316527
0.26107387
0.25895471
0.25684698
0.25468246
0.25272569
0.25033023
0.073365244
0.16547013
0.24852858
0.30497461
0.33437464
0.34376612
0.34085356
0.33158604
0.31983362
0.30777593
0.29646
0.28627929
0.27729243
0.26940601
0.26247211
0.25633706
0.25086286
0.24593376
0.24145595
0.2373544
0.23356911
0.23005155
0.22676163
0.22366533
0.22073282
0.21793704
0.21525264
0.21265512
0.21012023
0.20762367
0.20514116
0.20264945
0.20012793
0.19756513
0.19496421
0.19237255
0.18989755
0.18781713
0.18664102
0.18728308
0.19137647
0.19995441
0.21211872
0.22612437
0.24073458
0.25531398
0.26944717
0.28280048
0.29514571
0.30626082
0.3159984
0.3243497
0.33132782
0.33699786
0.34149883
0.34499248
0.34763431
0.34948273
0.35042001
0.35000517
0.34718317
0.34118598
0.33278569
0.32358346
0.31474647
0.30685487
0.3001922
0.29484087
0.29071416
0.28763459
0.28540199
0.28382383
0.28272737
0.28196574
0.28141945
0.28099393
0.28061608
0.28023033
0.27979538
0.27928127
0.27866709
0.27793904
0.27708915
0.27611394
0.2750136
0.27379144
0.27245308
0.2710059
0.26944646
0.26777276
0.26600026
0.2641462
0.26222889
0.26026543
0.25827418
0.25626316
0.25426654
0.25222459
0.25037263
0.24812918
0.073364787
0.16546525
0.2485097
0.30492761
0.33428696
0.34363169
0.34067321
0.33136559
0.31958176
0.30750228
0.29617359
0.28598773
0.2770017
0.26912052
0.26219486
0.25606985
0.25060656
0.24568857
0.24122153
0.23713011
0.23335409
0.22984483
0.22656222
0.2234722
0.22054498
0.2177535
0.21507241
0.21247714
0.20994336
0.20744655
0.20496199
0.20246569
0.1999352
0.19735606
0.19472266
0.19207167
0.18947233
0.18718183
0.18563758
0.18581293
0.18991645
0.19904026
0.21188224
0.22628853
0.24092153
0.25520561
0.2688123
0.28149193
0.29308845
0.30351369
0.31270792
0.32063622
0.32728648
0.33259668
0.33678028
0.34005194
0.3426299
0.34463665
0.3460313
0.34639695
0.34420518
0.33831097
0.32977767
0.32051686
0.31172634
0.30394214
0.29739993
0.29211878
0.2879554
0.28470074
0.28214728
0.28011317
0.27844884
0.27703757
0.27579206
0.27464861
0.27356158
0.27249854
0.27143658
0.27035946
0.26925533
0.26811574
0.26693496
0.26570919
0.26443631
0.26311567
0.26174215
0.26030918
0.25882104
0.25728297
0.25570185
0.25408545
0.25244239
0.25078107
0.24911148
0.24743738
0.24578116
0.24410092
0.24256501
0.24074622
0.07336444
0.16546156
0.24849547
0.30489209
0.3342203
0.34352889
0.34053458
0.33119539
0.31938655
0.30728945
0.29595016
0.28575968
0.27677378
0.26889627
0.26197671
0.25585932
0.25040442
0.24549501
0.24103636
0.23695284
0.23318408
0.22968134
0.22640445
0.22331937
0.22039629
0.21760815
0.21492959
0.212336
0.2098029
0.20730557
0.20481878
0.20231764
0.19977728
0.19717974
0.19450669
0.19178265
0.18901156
0.18643489
0.18427176
0.18368173
0.18708784
0.19541579
0.20647765
0.21798692
0.22910368
0.23979373
0.25006901
0.25988061
0.26918798
0.27794723
0.28609242
0.29353878
0.29998902
0.30545566
0.31013158
0.31424145
0.3179998
0.32153635
0.32481337
0.32740215
0.32639278
0.32071169
0.31222062
0.30320809
0.29481754
0.28746501
0.28128587
0.27622208
0.27208436
0.26866972
0.26581839
0.26340109
0.26131605
0.2594853
0.25785028
0.25636707
0.2550026
0.25373158
0.25253427
0.25139437
0.250293
0.24921982
0.24816646
0.24712591
0.2460922
0.24506021
0.24402547
0.24298373
0.24193206
0.24086868
0.23979305
0.23870566
0.23760813
0.23650271
0.23539289
0.23428062
0.23317534
0.23206163
0.23101901
0.22983358
0.073364187
0.16545886
0.2484852
0.30486651
0.33417215
0.34345434
0.34043372
0.33107119
0.3192437
0.3071333
0.29578584
0.28559162
0.27660552
0.26873047
0.26181522
0.25570329
0.25025447
0.24535132
0.24089882
0.23682112
0.23305771
0.22955978
0.22628713
0.22320569
0.22028565
0.21749997
0.21482324
0.21223082
0.20969811
0.20720019
0.2047113
0.20220573
0.19965602
0.19704106
0.19432719
0.19153199
0.1885565
0.18568942
0.18246286
0.18070955
0.18041135
0.18268586
0.18592218
0.18865088
0.19106739
0.19377538
0.19701974
0.20085298
0.20531504
0.21041033
0.21613789
0.22252177
0.2295802
0.23653723
0.24342076
0.25018433
0.25683544
0.26332239
0.2694649
0.27476902
0.27611357
0.27185543
0.26475314
0.25746896
0.2509117
0.2453205
0.24077609
0.23719838
0.2344122
0.2322418
0.23054436
0.22920766
0.22814532
0.22729233
0.22660018
0.22603229
0.22556078
0.22516392
0.22482454
0.22452865
0.22426413
0.22402079
0.22379004
0.22356444
0.22333766
0.22310419
0.22285949
0.22259971
0.22232178
0.22202328
0.22170251
0.22135849
0.22099098
0.22060068
0.22018832
0.21975763
0.21930687
0.21885169
0.21837776
0.21790294
0.073364014
0.16545704
0.24847843
0.30484981
0.33414074
0.34340569
0.34036785
0.33098997
0.31915016
0.30703089
0.2956779
0.28548107
0.27649469
0.26862112
0.26170859
0.25560019
0.25015531
0.24525625
0.24080777
0.23673388
0.232974
0.22947924
0.22620937
0.22313033
0.2202123
0.21742822
0.21475269
0.21216101
0.2096285
0.20713007
0.20463956
0.20213062
0.19957351
0.1969453
0.19419641
0.19134968
0.18816825
0.18512645
0.18035523
0.17759844
0.16522171
0.15449515
0.14538801
0.136427
0.12808769
0.12090143
0.11487017
0.109886
0.10591863
0.10280603
0.10064181
0.099727806
0.10070203
0.10454438
0.11021656
0.11712468
0.12475543
0.13279599
0.14120031
0.149349
0.16346577
0.17137309
0.17513547
0.17739548
0.17881346
0.17980379
0.18076101
0.181853
0.18309213
0.18444666
0.18587724
0.18734429
0.18881398
0.1902609
0.19166752
0.19302234
0.1943184
0.19555186
0.19672104
0.19782557
0.19886587
0.19984269
0.20075695
0.20160953
0.20240129
0.20313298
0.20380542
0.20441942
0.20497588
0.20547568
0.20591981
0.20630942
0.20664576
0.20693102
0.20716592
0.20735796
0.20749715
0.20762784
0.20765502
0.20779814
0.073363912
0.16545602
0.2484749
0.30484137
0.33412508
0.34338158
0.34033531
0.33094991
0.31910401
0.30698032
0.29562455
0.28542635
0.27643976
0.26856687
0.26165564
0.25554894
0.25010599
0.24520893
0.24076243
0.23669044
0.23293229
0.2294391
0.22617062
0.22309277
0.22017573
0.21739245
0.21471751
0.21212618
0.20959376
0.20709505
0.20460366
0.20209289
0.19953176
0.1968961
0.19412818
0.19124911
0.18796054
0.18475498
0.17935284
0.17552498
0.1620278
0.15055594
0.14006685
0.12886981
0.11775034
0.10746516
0.098130491
0.089703414
0.08215901
0.075466925
0.069302447
0.063940982
0.05979316
0.057389172
0.057251334
0.059340944
0.063431436
0.068722236
0.075531763
0.079315611
0.087256931
0.093896211
0.10175638
0.11043616
0.11853588
0.12574788
0.1322522
0.13817939
0.14359513
0.14855617
0.15311259
0.15730324
0.16115983
0.1647106
0.16798169
0.17099723
0.17377959
0.17634931
0.17872515
0.18092399
0.18296096
0.18484939
0.18660104
0.18822606
0.18973331
0.19113038
0.19242394
0.19361982
0.19472317
0.1957385
0.19666985
0.19752091
0.19829497
0.19899609
0.19962581
0.20019465
0.20068805
0.20116827
0.20149161
0.20199922
0.073363912
0.16545602
0.2484749
0.30484137
0.33412508
0.34338158
0.34033531
0.33094991
0.31910401
0.30698032
0.29562455
0.28542635
0.27643976
0.26856687
0.26165565
0.25554894
0.25010599
0.24520893
0.24076244
0.23669044
0.23293229
0.2294391
0.22617062
0.22309277
0.22017574
0.21739246
0.21471751
0.21212619
0.20959376
0.20709505
0.20460366
0.2020929
0.19953176
0.19689611
0.19412819
0.19124912
0.18796056
0.184755
0.17935286
0.175525
0.16202782
0.15055597
0.14006687
0.12886981
0.11775032
0.1074651
0.098130377
0.089703226
0.082158724
0.075466513
0.069301886
0.063940219
0.05979203
0.057387346
0.057248824
0.059337651
0.063427386
0.068717471
0.075526309
0.079309526
0.087249726
0.093887556
0.10174638
0.11042504
0.11852382
0.12573504
0.13223868
0.13816524
0.14358035
0.14854072
0.1530964
0.15728623
0.16114191
0.16469168
0.16796166
0.17097599
0.17375705
0.17632535
0.17869968
0.18089692
0.1829322
0.18481889
0.18656876
0.18819202
0.18969756
0.19109305
0.19238522
0.19357997
0.19468255
0.19569754
0.19662907
0.1974809
0.19825636
0.19895953
0.19959195
0.20016414
0.20066138
0.20114608
0.2014737
0.20198728
0.073364014
0.16545704
0.24847843
0.30484981
0.33414074
0.34340569
0.34036785
0.33098997
0.31915016
0.30703089
0.29567791
0.28548107
0.27649469
0.26862112
0.2617086
0.25560019
0.25015531
0.24525625
0.24080777
0.23673389
0.232974
0.22947924
0.22620938
0.22313034
0.22021231
0.21742823
0.2147527
0.21216102
0.20962852
0.20713009
0.20463958
0.20213064
0.19957353
0.19694533
0.19419643
0.19134971
0.18816828
0.18512649
0.18035527
0.1775985
0.16522177
0.15449519
0.145388
0.13642689
0.12808744
0.12090099
0.11486948
0.10988499
0.10591719
0.10280407
0.10063918
0.09972431
0.10069616
0.10453668
0.11020709
0.11711369
0.12474307
0.13278235
0.14118539
0.14933298
0.16344842
0.17135392
0.17511446
0.1773728
0.1787892
0.17977797
0.1807336
0.18182392
0.18306122
0.18441373
0.18584204
0.18730658
0.18877352
0.19021742
0.19162075
0.19297202
0.19426425
0.1954936
0.19665841
0.19775832
0.1987938
0.19976565
0.20067487
0.20152243
0.20230933
0.20303648
0.20370489
0.20431559
0.2048697
0.20536832
0.20581267
0.20620406
0.2065439
0.20683444
0.2070764
0.20727723
0.20742664
0.20756927
0.20760793
0.20776699
0.073364187
0.16545886
0.2484852
0.30486651
0.33417215
0.34345434
0.34043373
0.33107119
0.3192437
0.3071333
0.29578584
0.28559162
0.27660552
0.26873047
0.26181522
0.2557033
0.25025447
0.24535133
0.24089883
0.23682112
0.23305772
0.22955979
0.22628714
0.2232057
0.22028566
0.21749998
0.21482326
0.21223084
0.20969814
0.20720021
0.20471133
0.20220576
0.19965605
0.1970411
0.19432724
0.19153204
0.18855656
0.18568949
0.18246294
0.18070964
0.18041142
0.18268583
0.18592198
0.18865042
0.19106658
0.19377411
0.19701789
0.20085041
0.20531159
0.21040582
0.21613214
0.22251449
0.22957172
0.2365275
0.24340997
0.25017261
0.25682287
0.26330907
0.26945086
0.2747543
0.27609812
0.27183919
0.26473613
0.25745117
0.25089301
0.24530065
0.24075476
0.2371752
0.23438669
0.23221348
0.23051276
0.22917236
0.22810592
0.22724842
0.22655136
0.22597814
0.22550087
0.22509785
0.22475191
0.22444913
0.22417746
0.22392675
0.22368849
0.22345538
0.22322125
0.22298085
0.22272988
0.22246482
0.2221829
0.22188201
0.22156079
0.2212185
0.22085512
0.22047146
0.22006827
0.21964922
0.21921218
0.21877322
0.21831505
0.2178622
0.07336444
0.16546156
0.24849547
0.30489209
0.3342203
0.34352889
0.34053458
0.33119539
0.31938655
0.30728946
0.29595016
0.28575968
0.27677378
0.26889628
0.26197672
0.25585933
0.25040443
0.24549501
0.24103637
0.23695285
0.23318409
0.22968135
0.22640447
0.22331939
0.2203963
0.21760817
0.21492961
0.21233603
0.20980293
0.20730561
0.20481882
0.20231768
0.19977733
0.1971798
0.19450676
0.19178272
0.18901165
0.18643499
0.18427187
0.18368185
0.18708798
0.1954159
0.20647768
0.21798679
0.22910331
0.23979303
0.25006791
0.25987902
0.26918581
0.27794442
0.28608891
0.29353454
0.29998438
0.30545053
0.3101259
0.31423525
0.31799315
0.32152935
0.32480616
0.32739475
0.3263859
0.32070537
0.31221487
0.30320289
0.29481274
0.28746037
0.28128103
0.2762166
0.272077
0.26865987
0.26580549
0.26338459
0.2612954
0.25945994
0.25781963
0.25633057
0.2549597
0.25368175
0.25247706
0.25132977
0.25022074
0.24913956
0.24807789
0.24702884
0.24598672
0.24494668
0.24390455
0.24285639
0.24179963
0.24073284
0.23965581
0.23856937
0.23747536
0.2363762
0.2352754
0.23417488
0.23308369
0.23198687
0.2309608
0.22979867
0.073364787
0.16546525
0.2485097
0.30492761
0.33428696
0.34363169
0.34067321
0.33136559
0.31958176
0.30750228
0.2961736
0.28598774
0.2770017
0.26912053
0.26219486
0.25606986
0.25060657
0.24568858
0.24122154
0.23713012
0.2333541
0.22984485
0.22656224
0.22347222
0.220545
0.21775353
0.21507244
0.21247718
0.2099434
0.20744659
0.20496204
0.20246575
0.19993526
0.19735613
0.19472275
0.19207176
0.18947244
0.18718195
0.18563772
0.18581309
0.18991663
0.19904047
0.21188246
0.22628875
0.24092171
0.25520572
0.26881231
0.28149182
0.29308819
0.30351326
0.31270732
0.32063545
0.32728577
0.33259591
0.33677942
0.34005097
0.34262882
0.3446355
0.34603014
0.34639586
0.34420424
0.33831032
0.3297775
0.32051739
0.31172773
0.3039445
0.29740323
0.29212288
0.28795996
0.28470526
0.28215117
0.28011574
0.27844937
0.27703529
0.27578619
0.27463839
0.27354628
0.27247749
0.27140919
0.27032527
0.26921399
0.26806705
0.26687884
0.26564571
0.26436572
0.26303846
0.26165874
0.26022019
0.25872751
0.25718629
0.25560374
0.25398794
0.25234775
0.25069171
0.24902983
0.24736588
0.24572191
0.24405642
0.24253503
0.24073679
0.073365244
0.16547013
0.24852858
0.30497461
0.33437464
0.34376612
0.34085356
0.33158605
0.31983362
0.30777593
0.29646001
0.2862793
0.27729243
0.26940601
0.26247212
0.25633707
0.25086287
0.24593377
0.24145596
0.23735441
0.23356913
0.23005157
0.22676166
0.22366535
0.22073284
0.21793707
0.21525268
0.21265516
0.21012027
0.20762373
0.20514122
0.20264952
0.20012801
0.19756522
0.19496431
0.19237266
0.18989768
0.18781728
0.18664119
0.18728327
0.1913767
0.19995467
0.21211903
0.22612473
0.24073501
0.25531448
0.26944777
0.28280119
0.29514654
0.30626171
0.31599937
0.32435079
0.33132905
0.33699925
0.34150034
0.34499411
0.34763606
0.3494846
0.350422
0.35000731
0.34718545
0.34118842
0.33278835
0.32358644
0.31474988
0.30685883
0.3001968
0.29484615
0.2907201
0.28764108
0.2854088
0.28383063
0.28273377
0.28197125
0.28142354
0.28099607
0.28061574
0.28022704
0.27978874
0.27927096
0.27865291
0.27792092
0.27706715
0.27608824
0.27498452
0.27375943
0.27241868
0.27096977
0.26940949
0.26773576
0.26596425
0.26411242
0.26219872
0.26024038
0.25825578
0.25625295
0.25426583
0.25223503
0.25039386
0.2481655
0.073365835
0.16547645
0.24855305
0.3050352
0.33448677
0.3439367
0.34108094
0.33186247
0.32014789
0.30811591
0.29681451
0.28663901
0.27765012
0.26975642
0.26281175
0.25666387
0.25117591
0.24623295
0.24174176
0.23762769
0.23383099
0.23030321
0.22700432
0.22390028
0.22096124
0.21816012
0.21547156
0.2128711
0.21033456
0.20783782
0.20535687
0.20286894
0.20035443
0.19780349
0.19522359
0.19266772
0.19026023
0.18828979
0.18728892
0.18813592
0.19218122
0.20029553
0.21178983
0.22513515
0.23915329
0.25322046
0.2669381
0.27998023
0.29211438
0.30319363
0.31312482
0.32186116
0.32921724
0.33526123
0.34010477
0.34388544
0.34673271