/*--------------------------------*- C++ -*----------------------------------*\
| =========                 |                                                 |
| \\      /  F ield         | OpenFOAM: The Open Source CFD Toolbox           |
|  \\    /   O peration     | Version:  2412                                  |
|   \\  /    A nd           | Website:  www.openfoam.com                      |
|    \\/     M anipulation  |                                                 |
\*---------------------------------------------------------------------------*/
FoamFile
{
    version     2.0;
    format      ascii;
    arch        "LSB;label=32;scalar=64";
    class       volScalarField;
    location    "100";
    object      k;
}
// * * * * * * * * * * * * * * * * * * * * * * * * * * * * * * * * * * * * * //

dimensions      [0 2 -2 0 0 0 0];

internalField   nonuniform List<scalar> 
120000
(
0.013500256
0.022970604
0.030018566
0.034130822
0.035824987
0.035902635
0.035036207
0.03369626
0.03218126
0.030660349
0.02921756
0.027888375
0.026682749
0.02559745
0.024622812
0.02374668
0.022956633
0.022241055
0.021589585
0.020993217
0.020444233
0.019936042
0.019462998
0.019020221
0.018603441
0.01820886
0.01783305
0.017472868
0.01712541
0.016788018
0.016458314
0.016134464
0.015815293
0.015501706
0.015197568
0.014921265
0.014689065
0.014564119
0.014622047
0.015033202
0.016017631
0.017469135
0.019110418
0.020743164
0.022281066
0.023697262
0.024976467
0.026104459
0.027068301
0.027860752
0.02848121
0.028934704
0.02922551
0.029353606
0.02932909
0.029165697
0.028874739
0.028443598
0.027835048
0.026945787
0.025607935
0.02381326
0.021828417
0.019975399
0.018415595
0.017173566
0.016219396
0.015500367
0.014953682
0.014525932
0.014177883
0.013881731
0.013618454
0.013375661
0.0131456
0.012923924
0.012708569
0.012498869
0.012294937
0.012097222
0.011906305
0.011722765
0.011547126
0.011379802
0.011221101
0.011071212
0.010930216
0.010798414
0.010675526
0.010561351
0.010455704
0.010358339
0.010268944
0.010187182
0.010112585
0.010044356
0.0099824853
0.0099233003
0.0098754244
0.0098135113
0.015021079
0.025916493
0.034166115
0.039356456
0.042002365
0.042861892
0.042594202
0.04168834
0.040474794
0.0391549
0.037838255
0.036577924
0.035395544
0.034296392
0.033277903
0.032334328
0.031459076
0.030645711
0.029888289
0.029181404
0.028520139
0.027899992
0.027316799
0.026766683
0.026246002
0.025751309
0.025279323
0.024826897
0.024391008
0.023968776
0.023557499
0.023154873
0.022759068
0.02236993
0.02198752
0.021623768
0.021293962
0.02105201
0.020955331
0.021178805
0.022001888
0.023349727
0.024922912
0.026502842
0.027999898
0.029390133
0.030661143
0.031800628
0.032781732
0.033602759
0.034264165
0.034764065
0.035110487
0.035322554
0.035414963
0.035397609
0.035279652
0.035057152
0.034711006
0.034166115
0.033221352
0.031825771
0.030162895
0.028473766
0.026908801
0.025536805
0.024373266
0.023399022
0.022578972
0.021877072
0.021263687
0.02071661
0.020219897
0.019761981
0.019333614
0.018930117
0.018548773
0.018187838
0.017846223
0.017523202
0.017218273
0.016931044
0.016661175
0.016408321
0.016172124
0.015952184
0.01574806
0.015559076
0.015384949
0.015225237
0.015079396
0.014946828
0.014826929
0.014719675
0.014623883
0.014538333
0.01446239
0.014392833
0.014335638
0.014267585
0.014978113
0.025827346
0.034016071
0.039205485
0.041947032
0.042996219
0.042987005
0.042376467
0.041468816
0.040449402
0.039420236
0.038431468
0.037503742
0.036641878
0.035842884
0.035100564
0.034407992
0.033758654
0.033146892
0.032567969
0.03201799
0.03149375
0.030992572
0.030512149
0.030050418
0.029605454
0.029175387
0.028758351
0.028352443
0.027955743
0.027566315
0.027182405
0.026802407
0.026426014
0.026052933
0.025687052
0.025332183
0.025029907
0.0248002
0.024828955
0.025414788
0.026447218
0.027612685
0.028728513
0.029762289
0.030735466
0.031657924
0.032525351
0.033328444
0.034056076
0.034695446
0.035228714
0.035621417
0.03589157
0.036056442
0.036131742
0.036134219
0.036070865
0.035943297
0.035664481
0.035017958
0.033928469
0.032571353
0.031163794
0.029829564
0.028624807
0.027562284
0.026636507
0.02583033
0.025121803
0.024491131
0.023922382
0.023403419
0.022925287
0.022481381
0.022067049
0.021678276
0.021311574
0.020966004
0.02064095
0.020335968
0.020050644
0.019784543
0.019537186
0.01930806
0.019096618
0.018902291
0.018724486
0.018562603
0.018416005
0.018284021
0.018165932
0.018060947
0.017967692
0.017885651
0.017814326
0.017753096
0.01769973
0.01765609
0.017607682
0.014971425
0.025786632
0.033900522
0.038979478
0.041595776
0.042536341
0.04246129
0.041837371
0.0409648
0.040018735
0.039090111
0.038219632
0.037420853
0.036693675
0.036031807
0.035426839
0.034870292
0.034354506
0.033872903
0.033419986
0.032991211
0.032582834
0.032191758
0.031815381
0.031451484
0.031098112
0.030753489
0.030415937
0.030083815
0.029755486
0.029429278
0.0291036
0.028776741
0.028447878
0.028114806
0.027779756
0.02743138
0.027105815
0.026743383
0.026617974
0.02662984
0.026794031
0.026982099
0.027117883
0.027260974
0.027479174
0.027788851
0.028180062
0.028638187
0.029146241
0.029684577
0.030250607
0.030761843
0.031194882
0.031560642
0.031869636
0.032132914
0.032354938
0.032535802
0.032632622
0.03239795
0.03166596
0.030662323
0.029624422
0.028646471
0.027762714
0.02698706
0.026314504
0.025725785
0.025203953
0.024737293
0.02431629
0.023933161
0.023581738
0.023257253
0.022956069
0.022675378
0.02241298
0.022166838
0.021935442
0.021718598
0.021516247
0.021328347
0.021154788
0.020995385
0.020849878
0.020717946
0.020599206
0.020493226
0.020399507
0.020317496
0.020246574
0.020186049
0.020135209
0.020093213
0.020059317
0.020031918
0.020011498
0.019995607
0.019982077
0.014969224
0.025770443
0.033854684
0.038891202
0.041458773
0.042348716
0.04222647
0.04156334
0.040662057
0.039698682
0.038763959
0.037897673
0.037112141
0.036406031
0.03577198
0.03520069
0.034682953
0.034210491
0.033776176
0.033373984
0.032998849
0.032646495
0.032313282
0.031996065
0.031692088
0.031398885
0.031114205
0.030835941
0.030562069
0.030290607
0.03001955
0.029746945
0.029470534
0.029188755
0.028897213
0.028597885
0.028264947
0.027943957
0.027438044
0.027158645
0.025851202
0.024613854
0.023484727
0.02236393
0.021333769
0.020462608
0.01975137
0.019182586
0.018742113
0.018409087
0.018161661
0.018018336
0.018119049
0.018416697
0.018847063
0.019362008
0.019926906
0.020526632
0.021176479
0.021812613
0.02312445
0.023764796
0.023939398
0.023928199
0.023814279
0.02364985
0.023480512
0.023326628
0.023190593
0.023069621
0.022960383
0.022859715
0.022764395
0.022673085
0.022585025
0.02249978
0.022416827
0.022335988
0.022257532
0.022181874
0.02210961
0.022041404
0.021977915
0.021919734
0.021867355
0.021821152
0.021781388
0.021748199
0.021721611
0.021701528
0.021687719
0.021679753
0.021676983
0.021679087
0.021685618
0.021696433
0.021710094
0.021728266
0.021744773
0.021768459
0.014967571
0.025759762
0.033825846
0.038838352
0.04138014
0.042243259
0.04209478
0.041408419
0.040488371
0.039511142
0.038567311
0.037696101
0.036909069
0.036204136
0.035573337
0.035006965
0.034495584
0.034030838
0.033605627
0.033214008
0.032851018
0.032512465
0.032194763
0.031894773
0.031609698
0.031336982
0.031074243
0.030819205
0.030569643
0.030323349
0.030078054
0.029831492
0.029580971
0.029324369
0.029055993
0.028777169
0.028456162
0.028137231
0.027583994
0.027179806
0.02572721
0.024399418
0.023126737
0.02176098
0.020402618
0.019141156
0.017991433
0.016947249
0.016002049
0.015147489
0.014354437
0.013615177
0.01299712
0.012569299
0.01237458
0.012427747
0.012719442
0.013164329
0.013820597
0.01410425
0.015033
0.015795691
0.016650638
0.01753425
0.018297862
0.018926895
0.019456792
0.019911741
0.02030486
0.020645951
0.02094256
0.021200245
0.021423469
0.021616309
0.021782569
0.021925751
0.022049027
0.022155278
0.02224715
0.022327053
0.022397182
0.02245951
0.0225158
0.022567587
0.022616195
0.022662732
0.022708106
0.022753032
0.022798049
0.022843523
0.022889674
0.022936457
0.022983445
0.023030478
0.023077667
0.023125429
0.023171992
0.023220025
0.023261265
0.023312135
0.01496658
0.025752845
0.033805889
0.038799787
0.04132117
0.042164443
0.041998768
0.041299465
0.040370935
0.039388941
0.038443116
0.037571824
0.036785895
0.036082686
0.035453844
0.034889417
0.034379849
0.033916757
0.033493078
0.03310296
0.032741549
0.032404782
0.032089192
0.03179175
0.031509751
0.031240705
0.030982271
0.030732188
0.030488217
0.03024811
0.030009526
0.029770099
0.029527001
0.02927793
0.029016967
0.028745245
0.028431264
0.028119006
0.027572606
0.027165345
0.025713955
0.024401991
0.023154422
0.021811999
0.020469974
0.019216701
0.018066484
0.017013351
0.016051588
0.015174314
0.014355639
0.0135887
0.012922263
0.012414201
0.012122059
0.012085677
0.012313438
0.012709563
0.013347025
0.013605086
0.014345662
0.014901088
0.015682533
0.016609765
0.017481499
0.018252967
0.018940009
0.019553607
0.02010028
0.020589835
0.021027071
0.021414328
0.021756263
0.022057957
0.022324297
0.022559752
0.022768346
0.02295368
0.023118974
0.023267082
0.023400548
0.023521621
0.023632291
0.023734286
0.0238291
0.023917996
0.024002034
0.024082074
0.0241588
0.024232755
0.024304892
0.024374946
0.024442757
0.024508261
0.024570961
0.024631137
0.024687336
0.024743484
0.024788189
0.024845156
0.014965948
0.025748093
0.03379149
0.038770814
0.041275722
0.042102872
0.041922998
0.041212633
0.040276569
0.039290256
0.038342766
0.037471854
0.036687754
0.035987283
0.035361638
0.034800528
0.034294156
0.033833978
0.033412848
0.033024882
0.03266524
0.032329895
0.032015437
0.031718899
0.031437636
0.031169219
0.030911351
0.030661808
0.030418375
0.030178811
0.029940782
0.029701919
0.02945946
0.029211158
0.02895182
0.028682777
0.028378671
0.028082431
0.027601711
0.027304668
0.025989403
0.024795428
0.023746131
0.022700393
0.021716345
0.020855205
0.020117097
0.019487973
0.018960276
0.018523473
0.018165747
0.017911994
0.017793564
0.017837779
0.018057678
0.018537066
0.019167403
0.019881056
0.020631018
0.021394191
0.022746472
0.023388684
0.023628884
0.023760369
0.02384031
0.023901307
0.023975243
0.024071401
0.024184751
0.024305859
0.02443074
0.024557993
0.02468471
0.024808303
0.024926965
0.025039585
0.025145616
0.025244994
0.025337909
0.025424699
0.02550585
0.025581925
0.025653516
0.025721191
0.025785473
0.02584682
0.025905621
0.025962205
0.026016817
0.026069528
0.026119787
0.02616796
0.026214112
0.026258205
0.026299946
0.026339558
0.02637555
0.026411655
0.02643737
0.026475434
0.014965512
0.025744706
0.033780884
0.03874875
0.041240121
0.042053608
0.041861345
0.041141039
0.040198059
0.039207757
0.038258756
0.037388263
0.036605957
0.035908146
0.035285619
0.034727774
0.034224594
0.033767396
0.03334895
0.032963334
0.032605702
0.032272041
0.031958962
0.031663529
0.031383125
0.031115344
0.030857911
0.030608611
0.030365236
0.030125544
0.029887214
0.029647901
0.029405018
0.029156459
0.028898574
0.028632264
0.028346121
0.028065325
0.027741002
0.02754846
0.02750291
0.027716511
0.028020157
0.028259597
0.028449708
0.028646338
0.028870406
0.02912515
0.029413339
0.029736151
0.030092134
0.030482242
0.030908128
0.031369752
0.031860756
0.032341655
0.032810262
0.033269918
0.033699605
0.034067362
0.034092791
0.033629654
0.032922049
0.03220299
0.031549378
0.03098121
0.030506694
0.030120019
0.029806757
0.029552202
0.029344301
0.02917341
0.029031823
0.028913534
0.028813909
0.02872939
0.028657235
0.028595245
0.028541747
0.028495486
0.028455486
0.028420956
0.028391239
0.02836576
0.028344013
0.028325533
0.028309902
0.028296699
0.028285517
0.028275977
0.028267685
0.028260276
0.028253385
0.028246659
0.028239675
0.028232293
0.02822359
0.028215327
0.028202541
0.028195406
0.014965199
0.025742232
0.033772933
0.038731714
0.041211914
0.042013839
0.041810903
0.041081826
0.040132517
0.039138312
0.038187501
0.037316865
0.036535652
0.035839775
0.035219687
0.034664525
0.034164081
0.033709535
0.033293571
0.032910214
0.032554594
0.032222693
0.031911128
0.031616975
0.031337628
0.031070695
0.030813906
0.03056505
0.030321916
0.030082262
0.029843785
0.02960418
0.029361076
0.029112648
0.028856774
0.028595177
0.028326918
0.028073688
0.027854806
0.027781924
0.028100325
0.028901064
0.029957763
0.031036983
0.032052792
0.032999415
0.033877918
0.034686559
0.035426559
0.03610033
0.036708959
0.0372527
0.037732122
0.038149306
0.038507932
0.038790538
0.03903149
0.03924843
0.039440675
0.039575938
0.039423488
0.038898236
0.038144674
0.037343337
0.036584072
0.03589941
0.035300812
0.034785147
0.034340404
0.033953189
0.033612165
0.033308384
0.033034978
0.032786835
0.032560182
0.032352165
0.032160431
0.031983121
0.031818763
0.031666164
0.031524322
0.031392333
0.031269349
0.031154544
0.03104713
0.030946357
0.030851532
0.030762002
0.030677159
0.030596424
0.030519265
0.030445177
0.030373699
0.030304389
0.030236865
0.03017071
0.030105801
0.030041368
0.029979909
0.029913219
0.014964969
0.025740384
0.033766874
0.038718421
0.041189411
0.041981574
0.041769446
0.041032619
0.040077514
0.039079538
0.038126769
0.037255661
0.036475113
0.035780702
0.035162585
0.034609662
0.034111545
0.033659285
0.033245482
0.03286411
0.032510273
0.032179944
0.031869744
0.031576757
0.031298388
0.031032252
0.030776085
0.030527677
0.030284814
0.030045255
0.029806713
0.029566936
0.029323758
0.029075692
0.028821915
0.028565514
0.028312383
0.028086642
0.027929951
0.027937499
0.028326501
0.029196639
0.030409323
0.031747158
0.033080428
0.034356347
0.035547581
0.036636
0.037613165
0.038476918
0.039227698
0.039867509
0.040400348
0.040832776
0.041174496
0.041436686
0.041629936
0.041762682
0.041836926
0.041823949
0.041606363
0.041097402
0.040380686
0.039604745
0.038862683
0.038195512
0.037620096
0.037136187
0.036731347
0.036388947
0.036093446
0.035832081
0.035595105
0.035375594
0.035168902
0.034971625
0.034780044
0.034593397
0.034411562
0.034234661
0.03406284
0.033896121
0.033734303
0.033577123
0.033424295
0.033275526
0.033130542
0.03298907
0.032850851
0.032715632
0.032583193
0.03245333
0.032325886
0.032200684
0.032077696
0.031956502
0.031838006
0.031719028
0.031609957
0.031483348
0.014964795
0.025738977
0.033762199
0.03870797
0.041171381
0.041955322
0.041735314
0.040991702
0.040031382
0.039029884
0.038075143
0.037203359
0.036423142
0.035729784
0.035113195
0.034562068
0.034065858
0.033615503
0.033203523
0.032823844
0.032471543
0.032142582
0.031833578
0.03154162
0.031264119
0.030998694
0.030743084
0.030495077
0.030252458
0.030012981
0.029774375
0.029534429
0.029291139
0.02904331
0.028791067
0.028538732
0.028296374
0.028090867
0.027972059
0.028030007
0.028423643
0.029246593
0.030398812
0.031703042
0.033039923
0.034352302
0.035605753
0.036774492
0.037842739
0.038792086
0.039617373
0.040320906
0.040907077
0.041383481
0.041760847
0.042051481
0.04226734
0.042413395
0.042479837
0.042432681
0.04219027
0.041693706
0.041003451
0.04024478
0.039510515
0.038847892
0.038280391
0.037814835
0.037443838
0.037152311
0.036923319
0.036740833
0.036590894
0.036462161
0.036345982
0.036236057
0.03612787
0.036018407
0.035905824
0.03578912
0.035667886
0.035541678
0.035409167
0.03527098
0.035127851
0.034980514
0.034829558
0.034675493
0.034518824
0.03436004
0.03419965
0.034038157
0.033876092
0.03371391
0.033552244
0.033391008
0.033232249
0.033070972
0.032924579
0.032749101
0.014964662
0.025737893
0.033758562
0.038699717
0.041156915
0.041933975
0.041707263
0.040957778
0.03999284
0.038988119
0.038031467
0.037158889
0.036378762
0.035686147
0.035070742
0.034521063
0.034026427
0.033577667
0.03316723
0.032788996
0.032438011
0.032110224
0.03180225
0.031511176
0.031234417
0.030969596
0.030714451
0.030466769
0.03022433
0.029984884
0.029746159
0.029505965
0.029262382
0.029014388
0.02876262
0.028512127
0.028275064
0.028080005
0.027979991
0.028062367
0.028458932
0.029247711
0.030348524
0.0316035
0.032897174
0.034172458
0.035396044
0.036542714
0.037596257
0.038547611
0.039392265
0.040127504
0.040741912
0.04124401
0.04164452
0.041955705
0.042188758
0.042347034
0.042419126
0.042370028
0.042131141
0.041654172
0.040989017
0.040249626
0.039527668
0.038872256
0.038309086
0.037848538
0.037487161
0.03721303
0.0370113
0.036866909
0.036765728
0.036695268
0.036645008
0.036606377
0.036572561
0.036538262
0.036499489
0.036453339
0.036397809
0.036331402
0.036253347
0.036163373
0.036061564
0.035948413
0.035823002
0.035685766
0.035538109
0.035381373
0.035216979
0.035046334
0.034870835
0.03469173
0.034510423
0.034327346
0.03414554
0.033959019
0.033790064
0.033583705
0.014964558
0.025737051
0.03375572
0.038693198
0.041145336
0.041916691
0.041684342
0.040929842
0.039960883
0.038953283
0.03799485
0.037121442
0.036341252
0.03564915
0.035034654
0.034486131
0.033992775
0.033545331
0.033136179
0.032759153
0.032409277
0.032082481
0.031775376
0.031485049
0.031208915
0.030944597
0.030689835
0.030442411
0.030200096
0.02996063
0.029721726
0.029481182
0.029237067
0.028988368
0.028735758
0.028484399
0.028246615
0.028051249
0.027951752
0.028035959
0.028436416
0.029231316
0.030339207
0.031600672
0.032899172
0.034176942
0.035400358
0.036544228
0.037592605
0.038537224
0.039374217
0.040103219
0.040711944
0.041208705
0.041604648
0.0419124
0.042143427
0.042301226
0.042374353
0.042327697
0.042091514
0.041615684
0.040949537
0.040207969
0.039483705
0.038826466
0.038262548
0.037803001
0.037444988
0.037177093
0.036984869
0.036853499
0.036768916
0.036718483
0.036691328
0.036678343
0.036672047
0.036666404
0.036656651
0.036639132
0.036611154
0.036570836
0.036517
0.036449031
0.03636679
0.036270552
0.036160822
0.036038333
0.035902786
0.035754122
0.035594116
0.035424669
0.035247733
0.035065097
0.034878654
0.034689225
0.034500303
0.034305785
0.034129491
0.033913106
0.014964478
0.025736396
0.033753505
0.038688074
0.04113614
0.041902831
0.041665814
0.040907111
0.039934727
0.038924623
0.037964591
0.037090379
0.036310034
0.035618271
0.035004464
0.034456851
0.033964527
0.033518154
0.033110057
0.032734033
0.032385076
0.032059107
0.031752727
0.031463021
0.031187405
0.030923502
0.030669048
0.030421821
0.030179581
0.029940052
0.029700916
0.029459921
0.029215036
0.028965086
0.028710311
0.028455312
0.028210721
0.028004302
0.027887271
0.027951191
0.028357003
0.029198147
0.030370641
0.031693208
0.033044076
0.034365107
0.035621899
0.036789292
0.037852304
0.038796776
0.039614842
0.040309772
0.040885873
0.041351009
0.041718387
0.042002437
0.042216595
0.042366115
0.042441833
0.042408338
0.042180089
0.041692955
0.041005795
0.040246365
0.039510274
0.038847091
0.038282744
0.03782644
0.037472667
0.037207564
0.037014774
0.036878187
0.036783137
0.036717036
0.036669584
0.036632605
0.036599758
0.036566219
0.036528399
0.036483681
0.036430233
0.036366835
0.036292761
0.03620767
0.036111535
0.036004596
0.035887282
0.035760191
0.035622835
0.035475101
0.035318292
0.035153877
0.034983428
0.034808424
0.034630471
0.034450273
0.03427089
0.034086964
0.033919748
0.033716648
0.014964415
0.02573589
0.033751796
0.038684099
0.041128949
0.041891906
0.041651116
0.040888978
0.039913759
0.038901547
0.037940135
0.037065192
0.03628465
0.035593104
0.034979809
0.034432901
0.033941389
0.033495872
0.033088624
0.032713407
0.032365197
0.0320399
0.031734109
0.031444907
0.03116971
0.030906138
0.030651926
0.030404844
0.030162643
0.029923021
0.029683619
0.02944211
0.029196276
0.028944648
0.028686592
0.028425634
0.028168593
0.027941116
0.027787227
0.027804723
0.028212593
0.029109087
0.030348064
0.031708546
0.033061182
0.034355382
0.035565922
0.036675718
0.037676204
0.038564425
0.039339358
0.040001511
0.040552726
0.040990193
0.041333212
0.041600473
0.041810462
0.04197356
0.042086724
0.042116373
0.041938538
0.0414584
0.040758306
0.039991654
0.03925707
0.038600788
0.03804486
0.037593096
0.037235011
0.036953863
0.036732524
0.036555711
0.036410714
0.036287533
0.036178644
0.036078539
0.035983255
0.035889965
0.035796667
0.035701929
0.035604703
0.035504231
0.035399994
0.035291637
0.035178948
0.035061856
0.034939742
0.034812133
0.034679372
0.034541893
0.034400276
0.03425519
0.034107388
0.033957609
0.033806748
0.033655148
0.033504841
0.033352047
0.033212109
0.033046055
0.014964368
0.025735507
0.033750507
0.038681094
0.041123481
0.041883551
0.041639816
0.040874975
0.039897505
0.038883596
0.037921051
0.037045485
0.036264744
0.035573329
0.034960404
0.034414026
0.033923135
0.033478277
0.033071688
0.032697102
0.032349476
0.032024704
0.031719375
0.031430569
0.031155698
0.030892383
0.030638355
0.030391378
0.030149189
0.029909463
0.029669791
0.029427755
0.029180901
0.028927406
0.028665377
0.028397111
0.028122907
0.027866735
0.027650764
0.027591708
0.027931762
0.028754626
0.029829776
0.03092822
0.031970984
0.032957923
0.033892834
0.034773673
0.035599052
0.036367174
0.037074238
0.037714787
0.038265283
0.038728751
0.039122992
0.039467875
0.039781945
0.04007635
0.040348187
0.040562288
0.04047887
0.040007778
0.039298451
0.038538484
0.037824154
0.03719259
0.03665762
0.036216262
0.035853625
0.035552963
0.035300912
0.035086508
0.034901032
0.034737758
0.034591604
0.034458745
0.034336292
0.034222029
0.03411422
0.03401135
0.033911806
0.033814671
0.033719217
0.033624824
0.033530956
0.033437149
0.03334298
0.033248062
0.033152121
0.033054991
0.032956615
0.032857037
0.032756404
0.032654923
0.032552917
0.032450577
0.03234877
0.032246115
0.032149911
0.032040478
0.014964334
0.025735227
0.033749577
0.038678931
0.041119531
0.041877491
0.041631593
0.040864756
0.039885607
0.038870422
0.037907013
0.037030959
0.036250044
0.035558704
0.034946035
0.034400034
0.033909591
0.033465213
0.033059106
0.032684983
0.032337787
0.032013404
0.031708416
0.031419901
0.031145271
0.030882144
0.030628248
0.030381341
0.030139149
0.029899326
0.02965941
0.029416902
0.029169091
0.02891384
0.028647738
0.028372363
0.028077749
0.0277924
0.027469512
0.027293256
0.027263223
0.027491889
0.027815621
0.028087118
0.028326462
0.02859348
0.028911754
0.029285556
0.029717695
0.030207352
0.030753075
0.031355685
0.032015301
0.032658858
0.033289432
0.033903252
0.034501491
0.035080006
0.035623436
0.036089373
0.036206991
0.035833751
0.03520685
0.034558032
0.033968693
0.033462088
0.03304746
0.03271916
0.032462317
0.0322615
0.032103971
0.031979608
0.031880555
0.031800862
0.031736074
0.031682818
0.031638517
0.031601162
0.03156916
0.03154121
0.031516185
0.031493141
0.031471282
0.031449923
0.031428477
0.031406437
0.031383379
0.031358948
0.031332856
0.031304878
0.031274859
0.03124271
0.031208413
0.03117204
0.031133659
0.031093634
0.031051781
0.031009643
0.030965705
0.030921989
0.01496431
0.025735038
0.033748964
0.038677518
0.041116955
0.041873537
0.041626223
0.040858072
0.039877815
0.03886178
0.037897791
0.037021402
0.03624036
0.035549057
0.034936547
0.034390786
0.033900633
0.033456567
0.033050775
0.032676957
0.032330043
0.032005915
0.031701152
0.031412829
0.031138357
0.030875352
0.030621541
0.030374678
0.030132479
0.02989258
0.029652481
0.029409617
0.029161055
0.028904472
0.028634883
0.028354355
0.028039193
0.027736198
0.027257568
0.026979096
0.02571063
0.024585434
0.023609514
0.022629148
0.021697327
0.020878002
0.020177754
0.019589781
0.019115378
0.018739026
0.018475105
0.018363076
0.018482471
0.018949669
0.019629037
0.020440894
0.021319337
0.022225781
0.023153876
0.024036296
0.025527988
0.026344678
0.026728798
0.026958172
0.027101547
0.027201412
0.027297743
0.027407428
0.027531626
0.027667064
0.027809734
0.027955641
0.028101401
0.028244498
0.028383223
0.028516478
0.028643619
0.028764316
0.028878453
0.028986041
0.029087166
0.029181945
0.029270511
0.029352987
0.029429494
0.02950014
0.029565039
0.029624299
0.029678032
0.029726351
0.029769374
0.029807233
0.029840068
0.029868109
0.029891436
0.029910792
0.029925191
0.029938987
0.029942812
0.029958261
0.014964296
0.025734932
0.033748644
0.038676805
0.041115669
0.041871577
0.04162357
0.040854775
0.039873971
0.038857513
0.037893232
0.037016671
0.036235561
0.035544271
0.034931834
0.034386189
0.033896176
0.033452263
0.033046627
0.032672958
0.032326185
0.032002183
0.031697531
0.031409304
0.03113491
0.030871966
0.030618197
0.030371354
0.030129149
0.02988921
0.029649012
0.029405957
0.029156987
0.028899658
0.028628176
0.02834442
0.028018556
0.027699083
0.027156478
0.026768697
0.02537821
0.02416573
0.023029874
0.021785563
0.020513642
0.019301
0.018166476
0.017110947
0.016137573
0.015248924
0.014406788
0.013653825
0.013056771
0.012704416
0.012684062
0.012990843
0.013581165
0.014326222
0.015257586
0.015762947
0.016798224
0.017639783
0.018610869
0.019654604
0.020604141
0.021431511
0.022164184
0.02282141
0.023413709
0.023949727
0.024436738
0.024880346
0.025285059
0.025654764
0.025992932
0.02630267
0.026586775
0.026847757
0.027087865
0.027309088
0.02751319
0.027701709
0.027875991
0.028037193
0.028186318
0.028324232
0.028451687
0.028569342
0.028677777
0.028777501
0.028868965
0.028952583
0.029028721
0.029097817
0.029160046
0.029216477
0.029265672
0.0293138
0.029346626
0.029397889
0.014964296
0.025734932
0.033748644
0.038676805
0.041115669
0.041871577
0.04162357
0.040854775
0.039873971
0.038857514
0.037893232
0.037016671
0.036235561
0.035544271
0.034931834
0.034386189
0.033896176
0.033452264
0.033046627
0.032672958
0.032326185
0.032002183
0.031697532
0.031409304
0.03113491
0.030871966
0.030618197
0.030371355
0.03012915
0.029889211
0.029649013
0.029405958
0.029156988
0.028899659
0.028628177
0.028344421
0.028018557
0.027699084
0.02715648
0.026768699
0.025378212
0.024165732
0.023029875
0.021785563
0.02051364
0.019300994
0.018166463
0.017110925
0.016137539
0.015248873
0.014406716
0.013653725
0.01305662
0.012704169
0.012683722
0.012990403
0.013580636
0.014325616
0.015256915
0.01576221
0.016797379
0.017638794
0.018609757
0.0196534
0.020602868
0.021430183
0.02216281
0.022819995
0.023412252
0.023948222
0.024435178
0.024878722
0.025283361
0.025652984
0.025991058
0.026300692
0.026584684
0.026845543
0.027085516
0.027306597
0.027510547
0.027698909
0.027873028
0.028034066
0.02818303
0.028320789
0.028448103
0.028565636
0.028673977
0.02877364
0.028865086
0.028948736
0.02902496
0.0290942
0.029156634
0.029213331
0.029262842
0.029311355
0.02934455
0.029396352
0.01496431
0.025735038
0.033748964
0.038677518
0.041116955
0.041873537
0.041626223
0.040858072
0.039877815
0.038861781
0.037897791
0.037021402
0.036240361
0.035549057
0.034936547
0.034390786
0.033900633
0.033456567
0.033050775
0.032676957
0.032330044
0.032005915
0.031701153
0.03141283
0.031138357
0.030875353
0.030621542
0.030374679
0.03013248
0.029892582
0.029652482
0.029409619
0.029161057
0.028904474
0.028634886
0.028354358
0.028039197
0.027736202
0.027257572
0.026979101
0.025710635
0.024585438
0.023609512
0.022629137
0.021697301
0.020877956
0.02017768
0.01958967
0.019115219
0.018738808
0.018474809
0.018362682
0.018481811
0.018948816
0.019628006
0.020439723
0.021318048
0.02222439
0.023152385
0.024034724
0.025526337
0.026342885
0.026726849
0.026956079
0.027099316
0.027199045
0.027295238
0.027404779
0.02752882
0.027664085
0.02780656
0.02795225
0.028097771
0.028240605
0.028379043
0.028511985
0.028638788
0.02875912
0.028872868
0.028980042
0.029080733
0.029175061
0.029263164
0.029345173
0.029421219
0.029491423
0.029555914
0.029614818
0.029668267
0.029716394
0.029759337
0.029797247
0.02983028
0.029858677
0.029882521
0.029902559
0.029917783
0.029932584
0.029937386
0.02995426
0.014964334
0.025735227
0.033749577
0.038678931
0.041119531
0.041877491
0.041631594
0.040864756
0.039885607
0.038870422
0.037907013
0.037030959
0.036250045
0.035558704
0.034946035
0.034400034
0.033909591
0.033465213
0.033059106
0.032684984
0.032337788
0.032013404
0.031708417
0.031419902
0.031145272
0.030882145
0.030628249
0.030381343
0.030139151
0.029899328
0.029659413
0.029416905
0.029169094
0.028913844
0.028647743
0.028372368
0.028077755
0.027792407
0.027469519
0.027293265
0.027263229
0.027491886
0.027815603
0.028087076
0.028326388
0.028593365
0.028911588
0.029285326
0.029717389
0.030206956
0.030752574
0.031355057
0.032014577
0.032658036
0.033288531
0.033902281
0.03450046
0.035078923
0.035622303
0.036088194
0.036205757
0.035832449
0.035205477
0.034556586
0.033967163
0.033460455
0.033045699
0.032717242
0.032460201
0.032259145
0.032101338
0.031976661
0.031877257
0.031797178
0.031731968
0.031678252
0.031633452
0.03159556
0.031562986
0.031534431
0.031508775
0.031485073
0.031462539
0.031440494
0.031418364
0.031395661
0.031371984
0.031347
0.031320449
0.031292134
0.031261929
0.031229772
0.031195667
0.031159703
0.031121957
0.031082799
0.031042016
0.031001204
0.030958572
0.030916774
0.014964368
0.025735507
0.033750507
0.038681094
0.041123481
0.041883551
0.041639816
0.040874975
0.039897505
0.038883596
0.037921051
0.037045485
0.036264744
0.035573329
0.034960405
0.034414027
0.033923135
0.033478277
0.033071688
0.032697103
0.032349477
0.032024705
0.031719376
0.03143057
0.0311557
0.030892385
0.030638357
0.03039138
0.030149191
0.029909467
0.029669794
0.029427759
0.029180905
0.028927411
0.028665383
0.028397118
0.028122914
0.027866744
0.027650775
0.02759172
0.027931775
0.028754637
0.029829779
0.030928208
0.031970953
0.032957865
0.033892743
0.034773542
0.035598876
0.036366949
0.037073959
0.037714454
0.038264921
0.038728354
0.039122554
0.039467399
0.039781436
0.040075817
0.040347641
0.040561729
0.040478349
0.040007299
0.039298015
0.03853809
0.037823792
0.037192243
0.036657261
0.036215857
0.035853073
0.035552215
0.03529992
0.035085226
0.034899415
0.034735756
0.034589169
0.034455827
0.034332841
0.034217997
0.034109563
0.034006086
0.033905891
0.033808066
0.033711888
0.033616745
0.03352212
0.033427571
0.0333327
0.033237143
0.033140655
0.033043098
0.03294445
0.032844782
0.032744268
0.032643136
0.032541718
0.032440216
0.032339467
0.032238152
0.032143282
0.032035833
0.014964415
0.02573589
0.033751796
0.038684099
0.041128949
0.041891907
0.041651116
0.040888978
0.03991376
0.038901548
0.037940135
0.037065192
0.03628465
0.035593104
0.034979809
0.034432902
0.03394139
0.033495872
0.033088625
0.032713408
0.032365199
0.032039901
0.03173411
0.031444909
0.031169712
0.03090614
0.030651929
0.030404847
0.030162647
0.029923025
0.029683624
0.029442115
0.029196282
0.028944655
0.0286866
0.028425643
0.028168603
0.027941127
0.02778724
0.027804738
0.02821261
0.029109106
0.030348084
0.031708565
0.033061197
0.034355391
0.035565923