/*--------------------------------*- C++ -*----------------------------------*\
| =========                 |                                                 |
| \\      /  F ield         | OpenFOAM: The Open Source CFD Toolbox           |
|  \\    /   O peration     | Version:  2412                                  |
|   \\  /    A nd           | Website:  www.openfoam.com                      |
|    \\/     M anipulation  |                                                 |
\*---------------------------------------------------------------------------*/
FoamFile
{
    version     2.0;
    format      ascii;
    arch        "LSB;label=32;scalar=64";
    class       volScalarField;
    location    "100";
    object      nut;
}
// * * * * * * * * * * * * * * * * * * * * * * * * * * * * * * * * * * * * * //

dimensions      [0 2 -1 0 0 0 0];

internalField   nonuniform List<scalar> 
120000
(
0.00026092488
0.00034035387
0.00038908049
0.00041487557
0.00042504754
0.00042550792
0.00042034223
0.00041222596
0.00040285244
0.00039321767
0.00038385434
0.00037502143
0.00036682571
0.00035928811
0.00035238167
0.00034605565
0.00034025035
0.00033490542
0.00032996405
0.00032537485
0.0003210923
0.00031707642
0.00031329202
0.00030970787
0.00030629584
0.00030303014
0.00029988674
0.00029684281
0.00029387655
0.00029096727
0.00028809591
0.00028524739
0.00028241192
0.00027959806
0.00027684166
0.00027431352
0.00027217075
0.00027101073
0.00027154916
0.00027534052
0.00028421273
0.00029681106
0.0003104413
0.0003234312
0.00033520647
0.00034569533
0.00035490322
0.00036282883
0.0003694664
0.00037483563
0.00037898645
0.00038199177
0.00038390659
0.00038474705
0.0003845864
0.00038351373
0.00038159611
0.00037873678
0.00037466381
0.00036863124
0.00035936484
0.00034654556
0.00033179195
0.00031740038
0.00030476041
0.00029430843
0.00028602058
0.00027961408
0.0002746445
0.00027069379
0.00026743736
0.00026463598
0.00026212119
0.00025978097
0.00025754405
0.00025537016
0.00025324028
0.00025114874
0.00024909744
0.00024709177
0.00024513859
0.00024324482
0.000241417
0.00023966065
0.00023798037
0.00023637949
0.00023486048
0.00023342614
0.00023207697
0.00023081161
0.00022962945
0.00022852933
0.00022750908
0.00022656648
0.00022569797
0.00022489592
0.00022416142
0.0002234535
0.00022287635
0.00022212793
0.00027522955
0.00036152023
0.00041509001
0.00044550489
0.00046023682
0.00046492206
0.00046346797
0.00045851314
0.0004517902
0.00044436264
0.00043682756
0.00042949095
0.00042249228
0.00041588064
0.00040965896
0.00040380938
0.00039830657
0.0003931238
0.0003882353
0.00038361676
0.00037924539
0.00037509953
0.00037115848
0.0003674022
0.00036381119
0.00036036626
0.00035704848
0.00035383899
0.00035071903
0.00034767013
0.00034467441
0.00034171627
0.00033878305
0.00033587428
0.00033299105
0.00033022513
0.00032769715
0.00032583011
0.00032508108
0.00032680986
0.00033309983
0.00034315106
0.00035452252
0.00036558694
0.00037577049
0.00038498626
0.00039322274
0.00040046292
0.00040659348
0.00041165362
0.00041568519
0.00041870656
0.0004207876
0.00042205649
0.00042260824
0.00042250474
0.00042180025
0.00042046817
0.00041838745
0.00041509097
0.00040931256
0.00040062446
0.00039001996
0.00037894473
0.00036838697
0.00035887612
0.0003506088
0.00034353417
0.00033746508
0.00033218318
0.00032749846
0.00032326369
0.00031937084
0.00031573995
0.0003123054
0.00030903547
0.00030591278
0.00030292715
0.00030007325
0.00029734842
0.00029475164
0.00029228256
0.00028994113
0.00028772711
0.00028564001
0.00028367896
0.00028184231
0.00028012706
0.00027853167
0.00027705484
0.00027569394
0.00027444565
0.00027330458
0.00027227212
0.00027134407
0.00027050885
0.00026976194
0.00026907397
0.00026850564
0.00026782721
0.00027483563
0.00036089792
0.00041417755
0.00044464959
0.00045993356
0.00046565001
0.00046560011
0.00046228186
0.00045730432
0.00045164846
0.00044586573
0.00044023845
0.00043489237
0.00042986625
0.0004251537
0.00042072812
0.00041655672
0.00041260744
0.00040885178
0.00040526568
0.00040182922
0.00039852601
0.00039534231
0.00039226619
0.00038928685
0.00038639397
0.0003835772
0.00038082588
0.00037812876
0.0003754741
0.00037284972
0.00037024431
0.00036764728
0.00036505667
0.00036247058
0.00035991635
0.00035742157
0.0003552827
0.00035364868
0.00035385364
0.00035800385
0.0003652031
0.00037316317
0.00038062826
0.00038741606
0.00039369904
0.00039956338
0.00040500041
0.00040996991
0.00041442102
0.00041829311
0.00042149543
0.0004238382
0.00042544239
0.00042641845
0.00042686351
0.00042687819
0.00042650387
0.00042574913
0.00042409497
0.00042023399
0.00041364605
0.00040529023
0.00039643812
0.00038786106
0.00037995038
0.00037283456
0.00036652239
0.0003609363
0.00035595502
0.00035146233
0.00034736151
0.00034357747
0.00034005425
0.00033675042
0.00033363721
0.00033068837
0.00032788178
0.00032521347
0.00032268174
0.00032028603
0.00031802572
0.00031589991
0.0003139072
0.00031204582
0.00031031358
0.00030870796
0.00030722616
0.00030586532
0.00030462226
0.00030349347
0.00030247499
0.00030156355
0.00030074967
0.00030002654
0.00029938882
0.00029883957
0.0002983595
0.00029796701
0.00029753138
0.00027477426
0.00036061335
0.0004134735
0.00044336611
0.00045800382
0.00046315307
0.0004627443
0.00045933197
0.00045451676
0.00044923767
0.00044399485
0.00043902347
0.00043441151
0.00043016997
0.00042627269
0.00042267902
0.00041934579
0.00041623284
0.00041330504
0.00041053257
0.00040789052
0.00040535815
0.00040291815
0.00040055582
0.00039825849
0.00039601486
0.00039381447
0.00039164724
0.0003895031
0.00038737179
0.00038524257
0.00038310499
0.00038094762
0.00037876461
0.00037654076
0.00037429038
0.00037193605
0.00036972233
0.00036724223
0.00036638016
0.00036646182
0.00036758983
0.00036887764
0.00036980464
0.00037077901
0.00037225993
0.00037435166
0.0003769775
0.00038002943
0.00038338555
0.00038690995
0.00039058137
0.000393868
0.00039663061
0.00039894913
0.00040089739
0.00040254997
0.00040393839
0.00040506595
0.00040566838
0.00040420737
0.00039961546
0.00039323234
0.00038652064
0.0003800884
0.00037418083
0.00036891814
0.00036429366
0.00036019695
0.00035652664
0.00035321241
0.00035019584
0.00034742805
0.00034486983
0.00034249055
0.00034026683
0.00033818034
0.00033621688
0.00033436123
0.0003326047
0.00033094719
0.00032938947
0.00032793236
0.00032657625
0.00032532095
0.00032416567
0.00032310917
0.00032214981
0.00032128565
0.00032051431
0.000319833
0.00031923829
0.00031872581
0.00031829098
0.00031792811
0.000317636
0.00031739658
0.00031721352
0.00031707626
0.00031695577
0.00027475407
0.00036050013
0.00041319386
0.00044286379
0.00045724894
0.00046213047
0.00046146298
0.00045782521
0.00045283413
0.00044743765
0.00044213872
0.00043717041
0.00043261591
0.00042848059
0.00042473297
0.00042132776
0.00041821781
0.0004153595
0.0004127145
0.00041024993
0.00040793773
0.00040575396
0.00040367794
0.00040169162
0.00039977893
0.00039792533
0.00039611732
0.00039434204
0.00039258693
0.0003908395
0.00038908685
0.00038731618
0.0003855125
0.00038366505
0.00038174419
0.00037976191
0.00037754484
0.00037539492
0.00037198122
0.00037008246
0.00036106454
0.00035231756
0.00034414165
0.00033582926
0.00032800334
0.00032123656
0.00031560443
0.00031102698
0.00030743532
0.00030469168
0.00030263719
0.00030144072
0.00030228203
0.00030475482
0.0003082951
0.00031247845
0.00031700411
0.00032173914
0.00032679242
0.00033166441
0.00034149203
0.00034618785
0.00034745725
0.00034737611
0.00034654846
0.00034535031
0.00034411205
0.00034298292
0.0003419816
0.00034108859
0.00034028
0.00033953282
0.00033882313
0.00033814133
0.00033748173
0.00033684093
0.00033621419
0.00033559997
0.0003349999
0.0003344169
0.00033385537
0.00033332024
0.0003328166
0.00033234914
0.00033192197
0.00033153843
0.00033120116
0.00033091204
0.00033067231
0.00033048254
0.00033034308
0.00033025346
0.00033020582
0.00033019634
0.00033022308
0.00033028666
0.00033037571
0.00033050671
0.00033062641
0.00033081208
0.00027473889
0.00036042541
0.00041301785
0.00044256278
0.00045681511
0.00046155472
0.00046074285
0.00045697118
0.00045186597
0.00044637953
0.00044101582
0.00043600624
0.00043143069
0.00042729084
0.00042355206
0.00042016678
0.0004170866
0.00041426745
0.0004116712
0.0004092655
0.00040702295
0.00040492019
0.00040293695
0.00040105528
0.00039925894
0.00039753288
0.00039586285
0.000394235
0.00039263558
0.00039105068
0.0003894658
0.00038786621
0.00038623415
0.00038455529
0.00038279152
0.00038095044
0.00037881974
0.0003766909
0.00037296924
0.0003702266
0.0003601976
0.0003507795
0.00034150861
0.00033127121
0.00032076534
0.00031069092
0.00030121554
0.00029234394
0.00028407452
0.0002763852
0.00026905285
0.00026203316
0.00025601671
0.00025176794
0.00024981028
0.00025034646
0.00025326755
0.00025765897
0.00026400354
0.00026669924
0.00027534011
0.0002822379
0.00028977478
0.00029736378
0.00030376951
0.00030894651
0.00031324112
0.00031688167
0.00031999375
0.0003226691
0.00032497689
0.00032696757
0.00032868085
0.00033015196
0.0003314128
0.00033249198
0.00033341484
0.00033420402
0.00033488009
0.00033546156
0.00033596527
0.00033640631
0.00033679821
0.0003371529
0.00033748078
0.00033779075
0.00033809031
0.00033838567
0.00033868184
0.0003389826
0.00033929136
0.00033961083
0.00033993822
0.00034026747
0.00034059887
0.00034094036
0.00034127942
0.00034163759
0.00034194781
0.00034233879
0.0002747298
0.00036037702
0.00041289599
0.00044234299
0.0004564895
0.00046112394
0.00046021711
0.00045636959
0.00045121018
0.00044568871
0.00044030516
0.00043528692
0.00043071019
0.00042657354
0.00042284009
0.00041946076
0.00041638634
0.00041357249
0.00041098126
0.00040858075
0.00040634423
0.00040424908
0.00040227577
0.00040040704
0.00039862723
0.00039692174
0.00039527659
0.00039367806
0.00039211232
0.00039056524
0.00038902188
0.00038746689
0.00038588165
0.00038425067
0.00038253437
0.00038073908
0.00037865398
0.00037656888
0.00037289225
0.0003701281
0.00036010479
0.000350798
0.00034171296
0.00033165932
0.00032129438
0.00031130343
0.00030184314
0.00029291352
0.00028451388
0.0002766298
0.00026906409
0.00026177822
0.00025527833
0.00025020971
0.00024724817
0.0002468769
0.00024919243
0.00025316919
0.00025944082
0.00026193725
0.0002689721
0.00027412953
0.00028122523
0.00028941912
0.00029691641
0.00030339672
0.00030905325
0.00031401861
0.00031837664
0.00032222869
0.0003256294
0.00032861053
0.00033121858
0.0003335004
0.00033549905
0.00033725263
0.00033879458
0.0003401542
0.00034135723
0.00034242616
0.0003433809
0.00034423893
0.00034501573
0.00034572479
0.00034637792
0.00034698522
0.00034755538
0.00034809566
0.00034861211
0.00034910804
0.00034959433
0.00035006981
0.00035053379
0.00035098628
0.00035142608
0.00035185299
0.00035225711
0.00035266929
0.00035300163
0.00035343232
0.000274724
0.00036034377
0.00041280804
0.00044217781
0.00045623839
0.00046078714
0.00045980178
0.00045588958
0.00045068252
0.00044513005
0.00043973011
0.00043470744
0.00043013527
0.00042600924
0.00042228988
0.00041892609
0.00041586708
0.00041306749
0.00041048873
0.00040809862
0.00040587043
0.0004037817
0.0004018132
0.000399948
0.00039817081
0.00039646735
0.00039482393
0.00039322702
0.00039166293
0.00039011759
0.00038857605
0.00038702295
0.00038544006
0.00038381226
0.0003821047
0.00038032515
0.0003783036
0.00037632389
0.000373089
0.00037107602
0.00036202837
0.00035361467
0.00034605164
0.00033834609
0.0003309313
0.00032430356
0.00031851298
0.00031349297
0.00030921943
0.00030563679
0.00030267115
0.00030054975
0.00029955453
0.00029992647
0.00030176948
0.00030574874
0.0003109036
0.00031663859
0.00032255551
0.00032846719
0.00033868895
0.00034343674
0.00034519559
0.00034615446
0.00034673598
0.00034717882
0.00034771472
0.00034841037
0.00034922838
0.00035009969
0.00035099525
0.00035190453
0.00035280633
0.0003536819
0.00035451824
0.0003553074
0.00035604553
0.00035673237
0.00035736927
0.00035795877
0.00035850453
0.00035901081
0.00035948217
0.00035992305
0.00036033769
0.00036072995
0.00036110329
0.00036146065
0.00036180491
0.00036213925
0.00036245825
0.00036276577
0.00036306338
0.00036335177
0.00036362967
0.00036389953
0.00036415069
0.00036441086
0.00036460224
0.00036488943
0.00027472
0.00036032007
0.00041274326
0.00044205197
0.00045604159
0.00046051748
0.00045946356
0.00045549343
0.00045024306
0.00044466248
0.00043924811
0.00043422231
0.00042965549
0.00042554058
0.00042183573
0.00041848795
0.0004154451
0.00041266085
0.00041009603
0.00040771816
0.00040550038
0.00040342025
0.00040145864
0.00039959876
0.00039782546
0.00039612457
0.00039448249
0.00039288575
0.00039132067
0.00038977315
0.00038822829
0.00038667085
0.00038508374
0.00038345273
0.00038175317
0.00037999011
0.00037808658
0.00037620926
0.0003740292
0.00037272894
0.00037242067
0.00037386408
0.00037590642
0.00037750912
0.00037877679
0.0003800835
0.00038156709
0.0003832468
0.0003851382
0.00038724585
0.00038955685
0.00039207375
0.00039480317
0.00039774046
0.00040084106
0.00040385482
0.00040677008
0.0004096095
0.00041224612
0.00041448943
0.00041464415
0.00041181821
0.00040746267
0.00040298836
0.00039887765
0.00039526939
0.00039223022
0.00038973582
0.0003877028
0.00038604235
0.00038468015
0.00038355581
0.00038262038
0.00038183534
0.00038117065
0.00038060309
0.00038011465
0.00037969073
0.00037932032
0.00037899518
0.00037870888
0.0003784563
0.00037823326
0.00037803616
0.00037786198
0.00037770805
0.00037757212
0.00037745215
0.00037734592
0.00037725166
0.00037716746
0.00037709169
0.00037702278
0.00037695926
0.00037689895
0.00037684179
0.0003767814
0.00037673149
0.00037665452
0.00037662649
0.00027471713
0.00036030276
0.00041269468
0.00044195479
0.0004558856
0.00046029967
0.00045918665
0.00045516552
0.00044987585
0.00044426851
0.00043883889
0.00043380751
0.0004292427
0.00042513526
0.00042144143
0.00041810669
0.00041507766
0.00041230716
0.00040975539
0.00040738951
0.00040518245
0.0004031117
0.00040115809
0.00039930489
0.00039753698
0.00039584025
0.00039420112
0.00039260608
0.00039104144
0.00038949305
0.00038794612
0.00038638564
0.0003847959
0.00038316454
0.00038147698
0.00037974393
0.00037795849
0.00037626531
0.00037479562
0.00037430498
0.00037644377
0.00038176962
0.00038868622
0.00039562543
0.00040204752
0.00040794121
0.00041333561
0.00041823953
0.00042267732
0.00042667778
0.00043025948
0.00043343429
0.00043621437
0.00043861923
0.00044067605
0.00044229014
0.00044366166
0.0004448929
0.00044598115
0.0004467454
0.00044588436
0.00044290441
0.00043859374
0.00043396281
0.00042952893
0.00042549104
0.00042192894
0.0004188359
0.00041614957
0.00041379622
0.00041171208
0.00040984607
0.00040815865
0.00040662011
0.00040520849
0.00040390709
0.00040270203
0.00040158228
0.00040053914
0.00039956557
0.00039865569
0.00039780417
0.00039700605
0.00039625646
0.00039555078
0.00039488469
0.00039425426
0.00039365586
0.00039308615
0.00039254209
0.00039202093
0.00039152019
0.00039103769
0.0003905714
0.00039011958
0.0003896804
0.00038925315
0.00038883458
0.00038843802
0.00038801577
0.00027471501
0.00036028982
0.00041265766
0.00044187894
0.00045576112
0.00046012289
0.00045895895
0.00045489284
0.00044956746
0.0004439348
0.00043848979
0.00043345161
0.00042888693
0.00042478475
0.00042109965
0.00041777569
0.00041475839
0.00041199973
0.00040945936
0.00040710405
0.00040490654
0.00040284421
0.00040089789
0.00039905085
0.00039728801
0.0003955953
0.00039395912
0.00039236598
0.00039080213
0.0003892534
0.00038770509
0.00038614251
0.00038455129
0.00038292126
0.0003812465
0.00037954692
0.00037786151
0.0003763521
0.00037530083
0.00037535154
0.00037795571
0.00038371686
0.00039160463
0.0004001261
0.00040844164
0.00041624396
0.00042339868
0.00042983176
0.00043552634
0.00044049868
0.00044477552
0.00044838802
0.00045137448
0.00045378371
0.00045567857
0.00045712712
0.00045819189
0.00045892186
0.00045932964
0.00045925848
0.00045806247
0.00045525247
0.00045126579
0.0004469097
0.00044270385
0.00043888818
0.00043557054
0.00043276087
0.00043039621
0.00042838604
0.00042664347
0.00042509605
0.00042368781
0.00042237869
0.00042114166
0.00041995705
0.00041880238
0.0004176731
0.00041656853
0.00041548957
0.00041443725
0.00041341182
0.00041241223
0.00041143707
0.0004104848
0.00040955389
0.0004086429
0.00040775045
0.00040687529
0.00040601628
0.00040517254
0.00040434337
0.00040352841
0.00040272724
0.00040194035
0.00040116591
0.00040040991
0.00039965372
0.00039896156
0.00039816284
0.00027471342
0.00036027998
0.0004126291
0.0004418193
0.00045566136
0.00045997901
0.00045877139
0.00045466598
0.00044930864
0.00044365268
0.00043819282
0.00043314725
0.00042858127
0.0004244824
0.00042080381
0.00041748834
0.00041448055
0.00041173169
0.00040920089
0.00040685458
0.00040466529
0.00040261028
0.00040067035
0.00039882877
0.00039707046
0.00039538134
0.00039374784
0.00039215643
0.00039059331
0.00038904428
0.00038749472
0.00038593019
0.00038433734
0.00038270797
0.00038104242
0.00037936895
0.00037775467
0.00037638041
0.00037558363
0.00037597247
0.00037860323
0.00038404498
0.00039153695
0.00039984799
0.0004081915
0.00041621945
0.00042374497
0.00043064343
0.00043685346
0.00044229911
0.00044697922
0.00045093052
0.00045419643
0.00045683358
0.00045891177
0.00046050595
0.00046168643
0.00046248349
0.00046284568
0.00046258882
0.00046126576
0.00045854357
0.00045473252
0.00045050665
0.00044637879
0.00044262084
0.00043937701
0.00043669815
0.00043455182
0.00043285805
0.0004315232
0.00043045669
0.00042957853
0.00042882311
0.00042814002
0.00042749235
0.00042685345
0.0004262054
0.00042553715
0.00042484253
0.00042411891
0.00042336232
0.00042256576
0.00042173265
0.0004208672
0.00041997366
0.00041905526
0.00041811496
0.00041715575
0.00041618061
0.00041519274
0.00041419539
0.00041319206
0.0004121859
0.00041118119
0.000410178
0.00040918924
0.0004081851
0.00040727296
0.00040618113
0.00027471219
0.00036027239
0.00041260687
0.0004417722
0.0004555813
0.00045986197
0.00045861719
0.00045447781
0.00044909229
0.00044341525
0.00043794142
0.00043288829
0.00042832009
0.00042422311
0.00042054935
0.00041724061
0.0004142406
0.00041149991
0.00040897719
0.00040663855
0.00040445629
0.00040240758
0.00040047315
0.00039863625
0.0003968818
0.00039519573
0.00039356444
0.00039197437
0.00039041169
0.00038886213
0.00038731107
0.00038574417
0.00038414863
0.00038251737
0.00038085413
0.00037919208
0.00037761239
0.00037630763
0.00037563688
0.00037618943
0.00037883818
0.00038405232
0.00039121296
0.00039921976
0.00040730875
0.00041512851
0.00042249525
0.00042928418
0.00043542845
0.00044090318
0.00044570753
0.00044984776
0.00045327858
0.00045606312
0.00045827218
0.00045998125
0.0004612571
0.00046212161
0.00046251489
0.00046224727
0.00046094252
0.00045832622
0.00045465256
0.00045053386
0.00044647577
0.00044275973
0.00043954184
0.00043689299
0.00043480358
0.00043321229
0.000432038
0.00043119603
0.00043060557
0.00043019438
0.00042990119
0.00042967583
0.00042947831
0.00042927746
0.00042904977
0.00042877806
0.00042845058
0.00042805871
0.0004275969
0.00042706343
0.00042645851
0.00042578492
0.00042503503
0.00042421233
0.00042332519
0.00042238126
0.00042138874
0.00042035581
0.00041929069
0.00041820086
0.00041709482
0.00041597547
0.00041486145
0.0004137169
0.00041267825
0.00041140849
0.00027471124
0.00036026649
0.0004125895
0.00044173498
0.00045551721
0.0004597672
0.00045849115
0.00045432279
0.00044891283
0.00044321711
0.00043773054
0.00043267012
0.00042809921
0.00042400314
0.00042033292
0.00041702945
0.00041403571
0.00041130172
0.0004087857
0.00040645346
0.00040427711
0.0004022337
0.00040030391
0.00039847095
0.00039671974
0.0003950362
0.0003934067
0.00039181764
0.00039025514
0.00038870483
0.00038715197
0.00038558213
0.00038398243
0.00038234581
0.00038067624
0.00037900765
0.00037742238
0.0003761149
0.00037544728
0.00037601238
0.00037868829
0.00038394466
0.00039115291
0.0003992019
0.00040732112
0.00041515575
0.000422521
0.00042929308
0.00043540731
0.00044084378
0.00044560542
0.00044971162
0.00045311185
0.00045586788
0.00045805273
0.0004597438
0.00046100922
0.00046187158
0.00046227072
0.00046201628
0.00046072566
0.00045811438
0.00045443348
0.00045030052
0.0004462272
0.00044249852
0.00043927421
0.00043662924
0.0004345577
0.00043300136
0.00043188145
0.00043111475
0.00043062075
0.00043032634
0.00043016817
0.00043009295
0.00043005686
0.00043002448
0.0004299679
0.00042986568
0.00042970202
0.00042946582
0.00042914998
0.00042875069
0.00042826679
0.00042769962
0.00042705157
0.00042632695
0.00042552072
0.00042463426
0.00042367776
0.00042266218
0.00042159882
0.00042049808
0.00041937115
0.00041822297
0.00041707472
0.00041588973
0.00041481337
0.00041348936
0.0002747105
0.00036026191
0.00041257596
0.00044170573
0.0004554663
0.00045969117
0.00045838925
0.00045419661
0.0004487659
0.00044305403
0.0004375562
0.00043248906
0.0004279153
0.00042381947
0.00042015177
0.00041685238
0.00041386364
0.00041113508
0.00040862455
0.00040629759
0.00040412614
0.00040208715
0.00040016122
0.00039833154
0.000396583
0.00039490152
0.00039327344
0.00039168511
0.00039012256
0.00038857131
0.00038701641
0.00038544307
0.00038383774
0.00038219224
0.00038050765
0.00037881409
0.0003771825
0.00037580004
0.00037501397
0.00037544351
0.00037815915
0.00038372677
0.00039135549
0.00039978597
0.00040821716
0.00041629703
0.00042384105
0.00043073009
0.00043690868
0.00044232587
0.00044696496
0.00045086828
0.00045407871
0.00045665433
0.00045867843
0.00046023735
0.00046140923
0.00046222568
0.00046263862
0.00046245614
0.00046121013
0.00045853943
0.00045474542
0.00045051526
0.00044637692
0.00044261536
0.00043938905
0.00043676293
0.00043471589
0.00043317549
0.00043205171
0.00043125366
0.00043069733
0.00043030995
0.00043003161
0.0004298146
0.00042962187
0.00042942517
0.00042920348
0.00042894142
0.0004286282
0.00042825652
0.0004278219
0.00042732208
0.00042675658
0.00042612649
0.00042543373
0.00042468158
0.00042386444
0.00042298346
0.00042204605
0.0004210606
0.00042003618
0.0004189814
0.00041790572
0.0004168134
0.000415723
0.00041460231
0.0004135813
0.00041233809
0.00027470993
0.00036025837
0.00041256552
0.00044168304
0.00045542649
0.00045963125
0.00045830839
0.00045409593
0.00044864807
0.00044292268
0.00043741525
0.00043234218
0.0004277657
0.00042366971
0.00042000378
0.00041670748
0.00041372265
0.0004109984
0.00040849227
0.00040616957
0.00040400209
0.00040196668
0.00040004388
0.00039821686
0.00039647048
0.00039479064
0.00039316365
0.00039157581
0.00039001307
0.00038846078
0.0003869037
0.00038532654
0.00038371448
0.00038205737
0.00038035044
0.00037861649
0.00037690076
0.00037537584
0.0003743407
0.00037445853
0.00037719502
0.0003831411
0.00039121001
0.0003998827
0.00040832281
0.00041623813
0.0004235079
0.00043006472
0.00043589119
0.00044099936
0.00044540815
0.00044914102
0.00045222499
0.00045465769
0.00045655613
0.00045802985
0.00045918446
0.00046007926
0.00046069911
0.00046086145
0.00045988757
0.00045724766
0.00045337078
0.00044908688
0.00044494341
0.00044120856
0.00043801969
0.00043541083
0.00043333149
0.00043169162
0.00043039594
0.0004293579
0.00042850461
0.00042777827
0.00042713517
0.00042654318
0.0004259791
0.00042542636
0.00042487317
0.00042431102
0.00042373363
0.00042313644
0.00042251625
0.00042187086
0.00042119879
0.00042049962
0.00041976694
0.00041900026
0.0004182013
0.0004173724
0.00041651677
0.00041563822
0.00041474116
0.00041383001
0.00041291016
0.00041198388
0.00041106362
0.00041012673
0.0004092675
0.0004082463
0.0002747095
0.00036025569
0.00041255764
0.00044166589
0.00045539622
0.00045958541
0.00045824621
0.00045401817
0.0004485567
0.00044282047
0.00043730522
0.00043222723
0.00042764834
0.000423552
0.00041988727
0.00041659325
0.00041361138
0.00041089044
0.00040838771
0.00040606833
0.00040390396
0.00040187135
0.00039995101
0.00039812605
0.00039638136
0.00039470278
0.0003930766
0.00039148909
0.00038992608
0.00038837277
0.00038681357
0.00038523259
0.00038361343
0.00038194356
0.00038020977
0.00037842648
0.00037659499
0.00037487586
0.00037342037
0.00037302139
0.00037531301
0.00038080121
0.00038785505
0.00039493162
0.00040153411
0.00040768466
0.00041342659
0.0004187644
0.00042370511
0.00042825187
0.00043239495
0.00043611432
0.00043928563
0.00044193797
0.00044418168
0.00044613523
0.00044790682
0.00044956113
0.00045108322
0.00045227843
0.00045181299
0.00044917603
0.00044517606
0.00044085013
0.0004367447
0.00043308222
0.00042995512
0.00042735752
0.00042521156
0.00042342391
0.00042191924
0.00042063482
0.00041952029
0.00041853647
0.00041765367
0.00041684941
0.00041610669
0.00041541243
0.00041475638
0.0004141281
0.00041351916
0.00041292412
0.00041233897
0.00041176012
0.00041118431
0.00041060872
0.00041003051
0.00040944727
0.00040885728
0.00040825946
0.00040765346
0.00040703954
0.00040641867
0.00040579222
0.00040516226
0.00040453025
0.00040390147
0.00040326818
0.00040267469
0.00040200087
0.00027470918
0.00036025373
0.00041255196
0.00044165354
0.00045537435
0.00045955216
0.00045820097
0.00045396141
0.00044848982
0.00044274545
0.00043722428
0.00043214248
0.00042756166
0.00042346493
0.00041980097
0.00041650855
0.0004135288
0.00041081026
0.00040831002
0.00040599307
0.00040383098
0.00040180044
0.00039988191
0.00039805849
0.00039631502
0.00039463735
0.00039301176
0.00039142444
0.00038986115
0.00038830695
0.00038674589
0.00038516154
0.00038353579
0.00038185399
0.00038009278
0.00037826155
0.00037629252
0.00037437554
0.00037219446
0.00037099847
0.0003707943
0.00037234605
0.00037453191
0.00037635529
0.00037795543
0.00037973264
0.0003818402
0.0003843007
0.00038712569
0.00039030198
0.00039381178
0.00039765145
0.00040181232
0.00040583078
0.00040972991
0.00041349009
0.00041712218
0.00042060463
0.00042384973
0.00042661234
0.00042730662
0.00042509797
0.00042136236
0.00041746074
0.0004138846
0.00041078516
0.00040823038
0.00040619549
0.00040459576
0.00040333994
0.00040235141
0.00040156853
0.00040094304
0.00040043821
0.0004000264
0.00039968663
0.00039940285
0.00039916257
0.00039895587
0.00039877456
0.00039861164
0.00039846128
0.00039831864
0.00039817956
0.00039804047
0.00039789832
0.00039775055
0.00039759496
0.00039742982
0.00039725377
0.00039706593
0.00039686586
0.00039665355
0.00039642963
0.00039619459
0.00039595106
0.00039569751
0.00039544503
0.00039518098
0.00039492467
0.00027470897
0.00036025241
0.00041254821
0.00044164547
0.00045536008
0.00045953046
0.00045817141
0.00045392429
0.00044844601
0.00044269624
0.00043717109
0.00043208671
0.00042750455
0.00042340748
0.00041974398
0.00041645256
0.00041347418
0.00041075719
0.00040825857
0.00040594321
0.00040378263
0.00040175344
0.0003998361
0.00039801368
0.00039627103
0.00039459396
0.00039296873
0.00039138151
0.000389818
0.00038826314
0.00038670071
0.00038511385
0.00038348295
0.00038179213
0.00038000749
0.00037814149
0.00037603407
0.00037399681
0.00037075583
0.00036885709
0.0003600815
0.0003521141
0.00034505474
0.00033781472
0.00033078636
0.00032448077
0.00031899283
0.0003143108
0.00031048165
0.00030740999
0.00030523749
0.00030431061
0.00030529825
0.00030913278
0.00031462528
0.00032106566
0.00032789172
0.00033478935
0.00034170732
0.00034815711
0.00035879703
0.00036449005
0.00036713625
0.00036870655
0.00036968384
0.00037036212
0.0003710148
0.00037175653
0.0003725946
0.00037350625
0.00037446391
0.00037544036
0.00037641272
0.00037736419
0.00037828351
0.00037916365
0.00038000066
0.00038079274
0.00038153954
0.00038224153
0.00038289974
0.00038351533
0.00038408959
0.00038462371
0.00038511888
0.00038557621
0.00038599679
0.00038638166
0.00038673187
0.00038704841
0.00038733236
0.00038758483
0.00038780699
0.00038800059
0.00038816624
0.00038830914
0.00038842238
0.00038853588
0.0003885843
0.00038871747
0.00027470884
0.00036025167
0.00041254626
0.0004416414
0.00045535296
0.00045951971
0.00045815681
0.00045390597
0.00044842439
0.00044267193
0.00043714479
0.00043205911
0.00042747624
0.00042337898
0.00041971567
0.00041642473
0.000413447
0.00041073077
0.00040823295
0.00040591838
0.00040375853
0.00040173002
0.00039981327
0.00039799135
0.00039624909
0.00039457232
0.00039294727
0.0003913601
0.00038979647
0.00038824125
0.00038667809
0.00038508988
0.00038345621
0.00038176033
0.00037996298
0.00037807523
0.00037589566
0.00037374649
0.00037006768
0.00036741599
0.00035774613
0.00034909564
0.00034079268
0.00033145829
0.00032163692
0.00031198553
0.00030267735
0.00029375255
0.00028527503
0.0002773092
0.00026954312
0.00026240485
0.00025660352
0.00025311738
0.00025291441
0.00025595446
0.000261705
0.00026878719
0.00027738602
0.00028194128
0.00029105114
0.00029825034
0.00030634737
0.00031481817
0.00032233075
0.00032873613
0.00033430518
0.00033922215
0.00034359216
0.0003474985
0.00035100885
0.00035417483
0.00035703735
0.0003596309
0.00036198545
0.00036412719
0.00036607921
0.00036786187
0.00036949314
0.00037098875
0.00037236253
0.00037362645
0.00037479093
0.00037586492
0.00037685618
0.0003777714
0.00037861643
0.00037939639
0.00038011575
0.00038077849
0.00038138811
0.00038194785
0.00038246052
0.00038292944
0.00038335598
0.00038374765
0.00038409442
0.00038443887
0.00038468204
0.00038505707
0.00027470884
0.00036025167
0.00041254626
0.0004416414
0.00045535296
0.00045951971
0.00045815681
0.00045390597
0.00044842439
0.00044267193
0.00043714479
0.00043205911
0.00042747624
0.00042337898
0.00041971567
0.00041642473
0.000413447
0.00041073077
0.00040823295
0.00040591838
0.00040375853
0.00040173002
0.00039981327
0.00039799135
0.00039624909
0.00039457232
0.00039294727
0.0003913601
0.00038979647
0.00038824126
0.0003866781
0.00038508989
0.00038345621
0.00038176034
0.00037996299
0.00037807524
0.00037589566
0.0003737465
0.00037006769
0.000367416
0.00035774614
0.00034909566
0.00034079269
0.00033145829
0.00032163691
0.00031198549
0.00030267727
0.00029375241
0.0002852748
0.00027730886
0.00026954263
0.00026240414
0.00025660243
0.00025311559
0.00025291196
0.00025595133
0.00026170132
0.00026878309
0.00027738163
0.00028193655
0.0002910459
0.00029824437
0.00030634085
0.00031481133
0.0003223237
0.00032872895
0.00033429792
0.00033921482
0.00034358475
0.00034749097
0.00035100114
0.00035416688
0.00035702911
0.0003596223
0.00036197642
0.00036411766
0.00036606912
0.00036785115
0.00036948173
0.00037097658
0.00037234953
0.00037361257
0.00037477609
0.00037584906
0.00037683924
0.00037775334
0.00037859723
0.00037937604
0.00038009429
0.00038075599
0.0003813647
0.0003819237
0.00038243589
0.0003829046
0.00038333128