/*--------------------------------*- C++ -*----------------------------------*\
| =========                 |                                                 |
| \\      /  F ield         | OpenFOAM: The Open Source CFD Toolbox           |
|  \\    /   O peration     | Version:  2412                                  |
|   \\  /    A nd           | Website:  www.openfoam.com                      |
|    \\/     M anipulation  |                                                 |
\*---------------------------------------------------------------------------*/
FoamFile
{
    version     2.0;
    format      ascii;
    arch        "LSB;label=32;scalar=64";
    class       volScalarField;
    location    "100";
    object      p;
}
// * * * * * * * * * * * * * * * * * * * * * * * * * * * * * * * * * * * * * //

dimensions      [0 2 -2 0 0 0 0];

internalField   nonuniform List<scalar> 
120000
(
0.67020888
0.62217221
0.59659083
0.58745039
0.57950458
0.57115322
0.56405014
0.55811511
0.55272433
0.54762546
0.54277777
0.53813986
0.53365767
0.5292933
0.52502535
0.52083989
0.51672696
0.51268019
0.50869625
0.50477395
0.50091358
0.49711663
0.49338561
0.48972394
0.48613599
0.48262705
0.4792034
0.47587229
0.47264191
0.46952123
0.46651929
0.46364492
0.46090305
0.45829635
0.45580471
0.45340014
0.4509362
0.44826175
0.44473215
0.43965683
0.43107326
0.41585177
0.39503557
0.37188334
0.34764408
0.32246114
0.29690903
0.27169103
0.2472096
0.22369735
0.20138913
0.18047487
0.16100028
0.14296069
0.12632926
0.11102314
0.097052925
0.084478964
0.073863792
0.065708648
0.061488898
0.06215427
0.065020508
0.067486896
0.069278438
0.070664849
0.071545105
0.071821106
0.071557512
0.070850729
0.069769312
0.068373374
0.066721539
0.064864488
0.062842497
0.060688822
0.05843189
0.056094392
0.053694185
0.05124584
0.048761112
0.046249449
0.043718461
0.041174338
0.038622085
0.036065833
0.033508978
0.03095426
0.028404087
0.025860733
0.023326061
0.020801702
0.018289101
0.015789757
0.013305298
0.010837046
0.008389952
0.005956037
0.0035767944
0.0011279325
0.65161923
0.61481909
0.59468088
0.58696957
0.5795899
0.57150238
0.56442862
0.55844275
0.55300285
0.54786509
0.54298394
0.53831613
0.53380646
0.52941642
0.52512491
0.5209186
0.51678785
0.51272632
0.50873047
0.50479883
0.50093133
0.4971291
0.49339431
0.48973012
0.48614066
0.48263108
0.47920753
0.47587725
0.47264846
0.46953031
0.46653219
0.4636637
0.46093106
0.4583391
0.45586962
0.45350851
0.45111823
0.44861568
0.44530817
0.44067538
0.43218251
0.41609734
0.39456681
0.37122046
0.34688925
0.3216182
0.29604588
0.27085451
0.24640605
0.22292562
0.20063609
0.17970335
0.16023001
0.14223444
0.12564781
0.11035839
0.096319119
0.083510251
0.072503674
0.063772551
0.05977443
0.061692152
0.065416429
0.068091649
0.069895487
0.071245316
0.072044177
0.07222949
0.071891132
0.071125499
0.069997286
0.068564868
0.066885187
0.065007243
0.062968862
0.060801466
0.058533116
0.056185815
0.053776942
0.05132097
0.048829473
0.046311747
0.043775295
0.041226225
0.038669459
0.036109019
0.033548188
0.030989854
0.028436528
0.025890334
0.02335304
0.020826229
0.018311283
0.015809659
0.013322802
0.010852179
0.0084018438
0.0059655644
0.0035821322
0.0011292201
0.64709625
0.61599403
0.59645336
0.58744102
0.57952821
0.57140018
0.56432162
0.55833297
0.55291731
0.54781391
0.542963
0.53831941
0.53382844
0.52945171
0.52516874
0.5209673
0.51683879
0.51277768
0.50878111
0.50484808
0.50097889
0.49717493
0.49343854
0.48977307
0.48618278
0.48267298
0.47925003
0.47592141
0.4726957
0.46958259
0.4665924
0.46373637
0.46102352
0.45846557
0.45605509
0.4538129
0.45163091
0.44960552
0.44696895
0.44372983
0.43538764
0.41708437
0.3940363
0.37032859
0.34578038
0.32028734
0.29462173
0.26940832
0.2449498
0.22147829
0.19922031
0.1783475
0.15894979
0.14102144
0.12448483
0.10919561
0.095045361
0.081856295
0.070197753
0.060086609
0.056037035
0.060057623
0.065221466
0.068370472
0.070406811
0.071869225
0.072641162
0.072740425
0.072315839
0.071474641
0.070283161
0.06880134
0.067084153
0.065177056
0.063116446
0.06093318
0.058653623
0.056297532
0.053880913
0.051418104
0.048920577
0.0463976
0.043856598
0.041303536
0.038743196
0.036179523
0.033615782
0.031054797
0.028498984
0.025950412
0.023410795
0.020881647
0.018364239
0.015860019
0.013370023
0.010896139
0.0084396688
0.0060002837
0.0035983901
0.0011542107
0.64404852
0.61387701
0.59489634
0.58607868
0.57860018
0.57093357
0.56413048
0.55828634
0.55296272
0.54791925
0.54310094
0.53847101
0.53398214
0.52960022
0.52530764
0.52109439
0.51695346
0.51288037
0.50887286
0.50493027
0.50105305
0.49724262
0.4935013
0.48983234
0.48623998
0.48272953
0.47930744
0.4759814
0.47276038
0.46965478
0.4666761
0.46383787
0.46115302
0.45864263
0.45631355
0.4542348
0.45234155
0.45103066
0.44947797
0.44935895
0.44138797
0.41861518
0.39311958
0.36887552
0.34397847
0.31818942
0.29240894
0.26716843
0.2427066
0.2192585
0.19704566
0.17626391
0.1570112
0.13925299
0.12288395
0.10771658
0.093573615
0.080091904
0.067727882
0.055503485
0.051448408
0.058483586
0.065234727
0.068761213
0.070996698
0.072541402
0.073253532
0.073254195
0.072743836
0.071828418
0.070573824
0.069042676
0.067288458
0.065353561
0.063272552
0.061074363
0.058783049
0.056417874
0.053994873
0.051527108
0.049025107
0.046498084
0.043953495
0.041397237
0.038834002
0.036267669
0.033701473
0.031138197
0.028580198
0.026029488
0.023487717
0.02095631
0.018436355
0.015929192
0.013435244
0.010957084
0.0084916894
0.0060484447
0.0036126302
0.0011988157
0.64143648
0.61187936
0.59399702
0.58569306
0.57840779
0.57088352
0.56416012
0.55834419
0.55303678
0.54800811
0.54319952
0.53857398
0.53408613
0.5297029
0.52540722
0.52118972
0.51704403
0.51296611
0.508954
0.50500728
0.50112652
0.49731323
0.49356979
0.48989953
0.48630678
0.48279698
0.4793768
0.47605425
0.47283881
0.46974168
0.46677564
0.46395655
0.46130121
0.45883978
0.45659187
0.45467608
0.45305773
0.45251271
0.45211294
0.45731272
0.45263542
0.42389404
0.39541067
0.37031309
0.34475439
0.31845442
0.29235918
0.26688076
0.24221441
0.21860152
0.19624413
0.17526631
0.15579936
0.13789606
0.1214532
0.10624958
0.09206846
0.078342492
0.065665638
0.050119463
0.046132116
0.056240381
0.064699646
0.068819241
0.071346252
0.072986297
0.073664476
0.073600044
0.073029809
0.072064423
0.070770504
0.069210244
0.067434702
0.06548381
0.063391201
0.061184942
0.058888038
0.056518936
0.054092896
0.051622735
0.049119069
0.046590843
0.04404526
0.041488076
0.03892393
0.036356694
0.033789595
0.031225384
0.028666364
0.026114502
0.023571401
0.021038384
0.018516291
0.016006328
0.013508313
0.011025413
0.0085498668
0.0061015644
0.0036246681
0.0012529718
0.63933057
0.61024609
0.5930983
0.58510542
0.57791287
0.57052523
0.56394488
0.55822796
0.5529898
0.54801481
0.54324504
0.53864459
0.53417164
0.52979612
0.52550295
0.52128441
0.51713553
0.51305331
0.50903652
0.50508523
0.50120035
0.49738361
0.49363754
0.48996558
0.48637217
0.48286292
0.47944468
0.4761258
0.47291623
0.46982786
0.46687457
0.46407404
0.46144598
0.45902666
0.45684485
0.45504837
0.4536328
0.45356929
0.45400257
0.46135973
0.45802364
0.42713369
0.3976707
0.37230514
0.34640184
0.31976748
0.29341101
0.2677067
0.24282942
0.2190194
0.1964861
0.17536352
0.15576085
0.13769626
0.12107221
0.10567767
0.091344229
0.077422522
0.064792913
0.049320034
0.045956146
0.056143884
0.064528014
0.068752567
0.071417717
0.073115544
0.073798331
0.073724675
0.073142109
0.072163953
0.070859065
0.069290298
0.067508993
0.065555117
0.063461532
0.061255561
0.058959608
0.056591936
0.054167686
0.051699568
0.049198086
0.046671919
0.044128095
0.041572326
0.039009285
0.03644289
0.033876372
0.031312447
0.028753368
0.026201057
0.023657068
0.021122686
0.018598578
0.016085778
0.013583562
0.011095506
0.008609869
0.0061551574
0.0036395752
0.0013016155
0.6376033
0.60880955
0.59215476
0.5844788
0.57745734
0.57023527
0.5637998
0.55817485
0.55299227
0.5480557
0.54331185
0.53872641
0.53426071
0.52988746
0.52559327
0.52137164
0.51721856
0.51313176
0.5091105
0.50515515
0.50126681
0.49744734
0.49369937
0.4900264
0.48643299
0.48292485
0.47950907
0.47619427
0.47299082
0.46991121
0.4669701
0.46418627
0.46158093
0.45919233
0.4570522
0.45531158
0.45397101
0.45400355
0.45455887
0.46201931
0.45866793
0.42748134
0.39770424
0.37218768
0.34621805
0.31954266
0.29316636
0.26745715
0.24258005
0.21877037
0.19623672
0.17511127
0.15549529
0.13740967
0.1207631
0.1053471
0.090994044
0.07705177
0.064412845
0.049112562
0.046013181
0.056153557
0.064472591
0.068706499
0.071393128
0.073107535
0.073804205
0.073740455
0.07316355
0.072188509
0.070885947
0.069319637
0.067541444
0.065591453
0.063502268
0.061300998
0.059009838
0.05664695
0.054227421
0.051763867
0.049266662
0.046744341
0.04420384
0.041650862
0.039090128
0.0365256
0.033960511
0.031397536
0.028838869
0.026286365
0.023741492
0.021205463
0.018678959
0.01616296
0.013656375
0.011162797
0.0086683888
0.0062057475
0.0036630765
0.0013306943
0.63615787
0.60755546
0.59126609
0.58388316
0.5770305
0.56994071
0.56362055
0.55807765
0.55295036
0.54805499
0.54334189
0.53877732
0.53432462
0.52995878
0.52566798
0.52144687
0.51729244
0.51320323
0.50917907
0.50522074
0.50132968
0.49750794
0.49375831
0.49008446
0.48649106
0.48298403
0.47957063
0.4762598
0.47306226
0.46999091
0.46706092
0.46429135
0.46170345
0.45933317
0.45720894
0.45545874
0.45406353
0.45380437
0.45376596
0.45927967
0.45466296
0.42510614
0.39571117
0.37012236
0.34430028
0.31781269
0.2916004
0.26606118
0.24136302
0.21773378
0.19536941
0.17441182
0.15496925
0.13705241
0.12054621
0.10525043
0.090982592
0.077157359
0.064395062
0.049024428
0.045752059
0.055964893
0.064482027
0.068736718
0.071374759
0.073077868
0.073785657
0.073730782
0.073160212
0.072191585
0.070894734
0.069333412
0.067560373
0.065616049
0.063532907
0.061337867
0.059052902
0.056695992
0.054282166
0.051823982
0.04933173
0.046813858
0.044277223
0.041727484
0.039169391
0.036606952
0.034043399
0.031481359
0.028922975
0.026370066
0.023824054
0.021286098
0.018756861
0.01623717
0.013725926
0.011225961
0.0087242549
0.0062497233
0.0036977162
0.0013307527
0.63493563
0.60646724
0.59044805
0.58330963
0.57661321
0.56964364
0.56343174
0.55797303
0.55290479
0.54805213
0.54337006
0.53882635
0.53438639
0.53002752
0.52573967
0.52151872
0.51736269
0.51327089
0.50924375
0.50528245
0.5013887
0.49756476
0.49381357
0.49013893
0.48654566
0.4830398
0.47962886
0.47632198
0.47313019
0.47006668
0.46714682
0.46438925
0.4618141
0.45945147
0.45732235
0.45550932
0.45397453
0.45311494
0.45212668
0.45245301
0.4442574
0.42007965
0.39318927
0.36825392
0.34304843
0.31706681
0.29118545
0.26591536
0.24145518
0.21801771
0.19581491
0.17500541
0.15568527
0.13785975
0.12144208
0.10621597
0.091960779
0.078294504
0.065706387
0.053318875
0.049963901
0.057680226
0.064922114
0.068780849
0.071235216
0.072895131
0.073636782
0.073620545
0.073078706
0.072134253
0.070858119
0.069313725
0.067554789
0.065622791
0.063550711
0.0613657
0.05908975
0.05674089
0.054334298
0.051882577
0.049396024
0.046883101
0.044350627
0.041804234
0.039248737
0.036688224
0.034125947
0.031564484
0.029005923
0.026452043
0.023904241
0.021363652
0.018830974
0.016306833
0.01379047
0.011283271
0.0087765548
0.0062866089
0.0037476526
0.0013008262
0.63389553
0.6055237
0.58970589
0.58276929
0.57621763
0.56935946
0.56324504
0.55786374
0.55285083
0.54803802
0.54338521
0.53886188
0.53443507
0.53008405
0.52580027
0.52158075
0.51742437
0.51333114
0.50930203
0.5053386
0.50144286
0.49761728
0.49386496
0.49018984
0.4865969
0.48309236
0.47968389
0.4763809
0.47319464
0.47013852
0.46722787
0.46448056
0.46191471
0.45955305
0.45740518
0.45550595
0.45377531
0.45229885
0.45026871
0.44747305
0.4385394
0.41824263
0.39330286
0.36867366
0.34378518
0.31815892
0.2924955
0.26738027
0.24306144
0.21973783
0.19761456
0.17684734
0.15751887
0.13962549
0.12307807
0.10770252
0.093359735
0.079849321
0.067749475
0.057209026
0.053618579
0.058703959
0.064813185
0.068546625
0.070932033
0.072572138
0.073373915
0.0734245
0.072931662
0.07202696
0.07078429
0.069266492
0.06752872
0.065614331
0.063557411
0.06138577
0.05912123
0.056781843
0.054383512
0.051939155
0.049459094
0.04695177
0.044423852
0.041880945
0.039328063
0.036769408
0.034208189
0.0316469
0.029087619
0.026532128
0.023981808
0.021437797
0.018900891
0.016371511
0.013849525
0.011334405
0.0088245524
0.0063166442
0.0038100849
0.0012444816
0.63300782
0.60470739
0.58904217
0.58227074
0.57584836
0.5690905
0.56306222
0.55775129
0.55279083
0.54801659
0.54339242
0.53888954
0.53447632
0.53013369
0.52585456
0.52163701
0.51748075
0.51338652
0.50935579
0.50539054
0.50149305
0.497666
0.49391269
0.49023719
0.48664464
0.4831414
0.47973536
0.47643612
0.47325517
0.47020603
0.46730395
0.4645659
0.46200777
0.459645
0.45747514
0.45549105
0.45356971
0.45158612
0.44875111
0.44426926
0.43477618
0.41644981
0.39289635
0.36855831
0.34391053
0.31860382
0.29315631
0.26818775
0.24400848
0.220811
0.19878485
0.17808256
0.1587805
0.14087106
0.12427897
0.10887176
0.094571315
0.081340719
0.069778629
0.060501154
0.056802476
0.059955952
0.064969528
0.068459285
0.070700719
0.072260596
0.073090976
0.07319921
0.072752492
0.071887446
0.070680857
0.069193617
0.067481334
0.065588847
0.063551273
0.061397679
0.059149037
0.056822177
0.05443393
0.05199798
0.049525074
0.04702386
0.044500559
0.041960644
0.039409747
0.036852436
0.034291814
0.031730133
0.02916948
0.026611681
0.024058073
0.02150982
0.018967859
0.016432447
0.013904233
0.011380617
0.0088684744
0.0063414027
0.0038783326
0.0011728631
0.63225059
0.60400413
0.58845593
0.58181848
0.57550869
0.56884021
0.56288813
0.55764064
0.55272886
0.54799077
0.54339346
0.53890993
0.53450983
0.53017552
0.52590122
0.52168598
0.51753032
0.51343557
0.50940373
0.50543711
0.50153826
0.4977101
0.49395606
0.49028039
0.48668835
0.48318649
0.47978285
0.47648724
0.47331137
0.4702689
0.46737504
0.46464602
0.46209591
0.45973442
0.45754915
0.45550258
0.45343838
0.45110625
0.44772912
0.44226178
0.43224312
0.41493329
0.39240403
0.36837655
0.34390172
0.31881624
0.29352435
0.26865679
0.24457828
0.22148084
0.19953529
0.17888978
0.15961538
0.14170108
0.12508194
0.10965538
0.095387896
0.082349552
0.071141346
0.062572507
0.058794225
0.060718013
0.064921266
0.068248936
0.070442539
0.07198021
0.072856447
0.073027571
0.072627639
0.071798923
0.070623153
0.06916064
0.067467935
0.065591717
0.063567785
0.061424718
0.059184999
0.056867229
0.054487698
0.052059569
0.049593693
0.047099354
0.044581779
0.042045281
0.039496185
0.036939887
0.034379543
0.031816862
0.029253948
0.026692887
0.024135097
0.021581838
0.019034137
0.016492061
0.013956975
0.011424474
0.0089093995
0.0063637235
0.0039429419
0.0011032411
0.63160741
0.60340237
0.58794464
0.58141526
0.57520172
0.56861176
0.56272635
0.55753495
0.55266718
0.54796223
0.5433897
0.53892428
0.53453673
0.5302106
0.52594124
0.5217286
0.5175739
0.51347903
0.50944643
0.50547877
0.50157886
0.4977498
0.49399521
0.49031947
0.48672798
0.48322745
0.4798261
0.47653394
0.47336289
0.4703268
0.46744099
0.4647214
0.46218114
0.45982675
0.45764013
0.45556743
0.45343341
0.45092806
0.44727471
0.44134029
0.43105208
0.41418823
0.39215197
0.36824997
0.34381248
0.31880597
0.29357686
0.26875079
0.2447134
0.22165722
0.19975223
0.17914919
0.15990831
0.1420066
0.12538398
0.10995255
0.095700545
0.082750792
0.071702703
0.063426499
0.059602327
0.060972932
0.064803341
0.068080706
0.070277083
0.071817516
0.072728569
0.072944315
0.072579801
0.071779698
0.070628453
0.069185909
0.067509067
0.065645693
0.063632127
0.061497212
0.059264345
0.05695266
0.054578082
0.052153681
0.049690135
0.047196114
0.044677894
0.04214109
0.039591592
0.037035088
0.034474881
0.031911496
0.029346324
0.026781217
0.024217882
0.021658378
0.019103981
0.016554526
0.014011754
0.011470062
0.0089496824
0.00638779
0.0039938013
0.0010555107
0.63106578
0.60289279
0.5875053
0.5810625
0.5749298
0.56840752
0.56257962
0.55743696
0.55260819
0.547933
0.54338288
0.53893396
0.53455803
0.53023962
0.52597503
0.52176503
0.51761145
0.51351671
0.50948364
0.50551521
0.50161449
0.49778475
0.49402976
0.49035405
0.48676315
0.4832639
0.47986471
0.47657577
0.47340926
0.47037929
0.46750147
0.46479204
0.4622643
0.45992477
0.45775488
0.4556995
0.45358089
0.4510846
0.44742742
0.44146934
0.43112948
0.41418947
0.39207311
0.36809937
0.34360255
0.31855241
0.29329648
0.26845966
0.24442595
0.22138619
0.1995068
0.17893502
0.15972704
0.14185457
0.12525173
0.10982404
0.095557275
0.082575707
0.071484427
0.063163018
0.059308998
0.060707301
0.064604217
0.067943385
0.070191898
0.071780693
0.072732721
0.07297935
0.07263741
0.071853848
0.070714621
0.069280887
0.06761076
0.065752738
0.063743529
0.061612143
0.059382215
0.057072967
0.05470015
0.052276721
0.049813191
0.047318105
0.044798278
0.042259633
0.039707651
0.037147204
0.034581587
0.032013423
0.029445276
0.026876665
0.02430775
0.021741569
0.019179944
0.016622696
0.014071552
0.011520634
0.0089913592
0.0064172751
0.0040226638
0.0010458791
0.63061609
0.60246798
0.58713488
0.58076073
0.57469462
0.56822944
0.56245019
0.55734902
0.55255394
0.54790479
0.54337436
0.53894007
0.53457456
0.53026317
0.52600302
0.52179558
0.51764321
0.51354877
0.50951545
0.50554649
0.50164516
0.49781492
0.49405966
0.49038404
0.48679372
0.48329566
0.47989843
0.47661245
0.47345011
0.4704259
0.46755595
0.46485735
0.4623448
0.46002797
0.4578932
0.45589916
0.45388216
0.45157849
0.44819114
0.44265375
0.43247898
0.41493793
0.39216549
0.36791974
0.34326548
0.31804903
0.29267711
0.26777835
0.2437118
0.22066461
0.19880006
0.17825454
0.15908391
0.14126053
0.12470324
0.10928867
0.094975464
0.081838498
0.070499059
0.061791316
0.057916256
0.059924392
0.064326791
0.067836703
0.070185056
0.071867183
0.072866729
0.07313205
0.072802178
0.072025657
0.070888305
0.06945395
0.067782136
0.065921587
0.063909205
0.061774232
0.059540505
0.057227381
0.05485061
0.052423107
0.049955286
0.047455608
0.044931066
0.042387722
0.039830934
0.03726538
0.034694542
0.032121235
0.029547603
0.026973086
0.024398096
0.02182562
0.019257297
0.016692875
0.014133599
0.011574301
0.0090328135
0.006451732
0.004025061
0.0010797776
0.63025097
0.60212206
0.58683062
0.58050995
0.57449738
0.56807904
0.56233987
0.55727303
0.55250616
0.54787904
0.54336538
0.5389436
0.53458709
0.53028185
0.52602566
0.52182055
0.51766936
0.5135753
0.50954187
0.50557255
0.50167078
0.49784017
0.49408474
0.49040925
0.48681946
0.48332247
0.47992698
0.47664359
0.47348499
0.47046607
0.46760363
0.4649161
0.46242056
0.46013254
0.45804776
0.45615306
0.45431349
0.45238143
0.44953301
0.44493496
0.43517395
0.41645553
0.39249156
0.36778337
0.34283251
0.31730435
0.29171993
0.26669679
0.24253808
0.21942447
0.19753123
0.17699476
0.15786965
0.14012157
0.12364362
0.10826929
0.093905222
0.080515279
0.068736987
0.059219996
0.055350235
0.058677561
0.064040623
0.067829813
0.070325245
0.072122422
0.073151901
0.073409508
0.07307168
0.072285276
0.071134427
0.069686594
0.068002591
0.066130706
0.064107681
0.061962806
0.059719896
0.057398237
0.05501348
0.052578495
0.050103529
0.047596796
0.045065337
0.042515389
0.039952336
0.037380944
0.034805048
0.032226204
0.029645212
0.027063448
0.024482603
0.021904647
0.019330497
0.016759881
0.014193183
0.011626784
0.0090709226
0.0064877972
0.0040034783
0.0011499071
0.62996482
0.60185045
0.58659013
0.5803099
0.57433891
0.56795751
0.56225005
0.55721051
0.55246628
0.54785698
0.54335695
0.53894539
0.53459629
0.53029616
0.5260433
0.5218402
0.51769005
0.5135964
0.50956295
0.5055934
0.50169133
0.49786046
0.49410493
0.49042957
0.48684024
0.48334415
0.47995012
0.47666893
0.47351352
0.47049921
0.46764355
0.4649666
0.46248831
0.46023189
0.45820496
0.45643461
0.45482494
0.45342957
0.45138917
0.44842909
0.4390861
0.41822091
0.3926957
0.36753908
0.34222431
0.31628911
0.29043621
0.2652492
0.24096551
0.21776492
0.19583306
0.17530533
0.15623857
0.13858225
0.12219266
0.1068577
0.092421688
0.078680262
0.066268877
0.055342524
0.051480895
0.056922082
0.063580298
0.067735419
0.070476706
0.072444429
0.073510609
0.073754642
0.073401203
0.07259451
0.071418484
0.069946221
0.068240415
0.066348999
0.064308518
0.062148183
0.059891604
0.05755783
0.055162311
0.052717982
0.050234846
0.047720538
0.045181938
0.042625335
0.040056097
0.037478632
0.03489618
0.032310698
0.029723812
0.027137247
0.024552366
0.021970338
0.019391695
0.016816323
0.014243541
0.011671784
0.0091014554
0.0065201742
0.003965766
0.0012386425
0.62975348
0.6016497
0.58641149
0.58016023
0.57421972
0.56786572
0.56218181
0.55716264
0.55243541
0.5478396
0.54334991
0.53894614
0.53460271
0.53030653
0.52605626
0.52185473
0.51770544
0.51361214
0.50957873
0.50560903
0.50170676
0.49787572
0.49412013
0.49044489
0.48685593
0.48336055
0.47996766
0.47668819
0.47353529
0.47052471
0.46767468
0.46500686
0.46254407
0.46031759
0.45834686
0.45670576
0.45533767
0.45459933
0.45361516
0.453742
0.44497974
0.42004432
0.3923797
0.36675483
0.34100715
0.31463836
0.28852243
0.26316742
0.23875559
0.21547095
0.19350195
0.1729947
0.15403165
0.1365553
0.12037876
0.10522485
0.090863836
0.076904208
0.063898084
0.05088467
0.047103932
0.055492346
0.063507259
0.06787874
0.070771967
0.072832646
0.073883128
0.074083827
0.073693712
0.072853968
0.071648161
0.070150959
0.068424474
0.06651546
0.06445989
0.062286632
0.060018923
0.057675474
0.055271435
0.052819253
0.050328826
0.04780811
0.045263978
0.042702512
0.040128822
0.037547039
0.03496029
0.032370864
0.029780565
0.02719095
0.024603192
0.022018261
0.019436489
0.016857883
0.014280648
0.011705331
0.0091224589
0.0065451542
0.0039232154
0.0013253554
0.62961401
0.60151729
0.58629324
0.58006059
0.57414014
0.56780426
0.56213592
0.55713025
0.55241439
0.54782761
0.54334487
0.53894635
0.53460676
0.53031326
0.52606476
0.52186433
0.51771564
0.51362259
0.50958922
0.50561944
0.50171705
0.49788591
0.49413029
0.49045514
0.48686645
0.48337155
0.47997944
0.47670115
0.47355001
0.47054204
0.46769606
0.46503499
0.46258389
0.46038102
0.45845436
0.45692332
0.45574931
0.45566408
0.45566942
0.46093979
0.45564665
0.42519262
0.39486661
0.36846899
0.34202792
0.31509771
0.28861415
0.2629688
0.23831181
0.21482775
0.19267903
0.17199318
0.15283256
0.13519554
0.11895539
0.10379698
0.089450327
0.075309358
0.062081612
0.045710879
0.041959168
0.053341567
0.062916268
0.067781865
0.070925937
0.073076101
0.074113669
0.074284118
0.073869126
0.073007307
0.071782401
0.070269836
0.068530959
0.066611617
0.064547339
0.062366706
0.060092682
0.057743751
0.05533487
0.052878272
0.050383845
0.04785968
0.045312604
0.042748508
0.040172328
0.037588108
0.034998995
0.032407389
0.029815118
0.027223696
0.024634261
0.0220477
0.01946416
0.016883721
0.014303704
0.011726391
0.0091344416
0.006561293
0.0038871392
0.0013925774
0.62954457
0.60145153
0.5862344
0.58001079
0.57410034
0.5677735
0.56211288
0.55711393
0.55240375
0.54782151
0.54334225
0.53894637
0.53460872
0.53031657
0.52606897
0.52186909
0.51772072
0.51362781
0.50959446
0.50562465
0.5017222
0.49789101
0.49413538
0.49046028
0.48687172
0.48337706
0.47998535
0.47670767
0.47355742
0.47055081
0.46770694
0.46504947
0.46260469
0.46041472
0.45851283
0.45704312
0.45598781
0.45626591
0.45693932
0.46416688
0.46015558
0.42791903
0.39697417
0.37049515
0.34381251
0.31662115
0.28991917
0.26406591
0.23919693
0.21551515
0.19318082
0.17230476
0.15296948
0.13516608
0.11874924
0.10341319
0.088943652
0.074647949
0.061514448
0.045219742
0.041955446
0.05337347
0.06280839
0.067710968
0.07094965
0.073137575
0.07417672
0.074344659
0.073926959
0.073060733
0.071831045
0.070314328
0.068571909
0.06664946
0.06458246
0.062399451
0.060123332
0.057772526
0.055361938
0.05290375
0.050407859
0.047882403
0.045334183
0.042769016
0.040191789
0.037606542
0.035016442
0.032423917
0.02983081
0.027238626
0.024648483
0.022061226
0.019476903
0.016895649
0.014314304
0.01173613
0.0091394465
0.0065689019
0.0038664407
0.0014289885
0.62954457
0.60145153
0.5862344
0.58001079
0.57410034
0.5677735
0.56211288
0.55711393
0.55240375
0.54782151
0.54334225
0.53894637
0.53460872
0.53031657
0.52606897
0.52186909
0.51772071
0.51362781
0.50959446
0.50562465
0.50172219
0.49789101
0.49413537
0.49046027
0.48687171
0.48337706
0.47998535
0.47670767
0.47355742
0.47055081
0.46770693
0.46504946
0.46260468
0.46041471
0.45851282
0.45704311
0.45598779
0.4562659
0.45693931
0.46416686
0.46015555
0.42791899
0.39697414
0.37049512
0.34381248
0.31662112
0.28991914
0.26406588
0.2391969
0.21551512
0.19318079
0.17230474
0.15296944
0.13516603
0.11874919
0.10341314
0.088943595
0.074647892
0.061514401
0.0452198
0.041955593
0.053373539
0.06280842
0.067711012
0.070949703
0.073137634
0.074176789
0.074344742
0.073927054
0.073060838
0.07183116
0.070314454
0.068572046
0.066649607
0.064582616
0.062399614
0.060123499
0.057772694
0.055362105
0.052903913
0.050408018
0.047882557
0.045334327
0.042769143
0.040191892
0.037606612
0.035016472
0.032423904
0.029830751
0.027238518
0.024648324
0.022061016
0.019476644
0.016895349
0.014313971
0.011735779
0.0091390588
0.0065685778
0.0038658138
0.0014293681
0.62961401
0.60151729
0.58629324
0.58006059
0.57414014
0.56780426
0.56213592
0.55713025
0.55241438
0.54782761
0.54334487
0.53894634
0.53460676
0.53031325
0.52606475
0.52186432
0.51771563
0.51362259
0.50958921
0.50561944
0.50171704
0.49788591
0.49413028
0.49045513
0.48686644
0.48337153
0.47997943
0.47670114
0.47354999
0.47054202
0.46769603
0.46503497
0.46258387
0.46038099
0.45845433
0.45692328
0.45574927
0.45566404
0.45566936
0.46093974
0.45564656
0.42519251
0.3948665
0.36846888
0.34202781
0.3150976
0.28861404
0.26296868
0.23831169
0.21482763
0.19267891
0.17199309
0.15283247
0.13519542
0.11895524
0.1037968
0.089450127
0.075309144
0.062081392
0.045710815
0.041959395
0.053341724
0.062916399
0.067782045
0.070926149
0.07307633
0.074113922
0.074284402
0.073869434
0.073007632
0.071782749
0.070270209
0.068531359
0.06661204
0.064547782
0.062367164
0.06009315
0.05774422
0.05533533
0.052878719
0.05038428
0.0478601
0.045312996
0.042748855
0.040172609
0.037588298
0.034999073
0.032407343
0.029814944
0.027223389
0.024633813
0.022047108
0.019463432
0.016882878
0.014302769
0.011725409
0.0091333553
0.0065603864
0.0038853776
0.0013936569
0.62975348
0.60164969
0.58641149
0.58016022
0.57421972
0.56786572
0.56218181
0.55716263
0.55243541
0.54783959
0.5433499
0.53894613
0.53460271
0.53030652
0.52605625
0.52185473
0.51770544
0.51361213
0.50957872
0.50560902
0.50170674
0.49787571
0.49412011
0.49044487
0.48685592
0.48336053
0.47996764
0.47668817
0.47353527
0.47052468
0.46767465
0.46500682
0.46254402
0.46031754
0.45834681
0.4567057
0.4553376
0.45459925
0.45361507
0.4537419
0.44497961
0.42004416
0.39237953
0.36675465
0.34100696
0.31463817
0.28852224
0.26316722
0.23875538
0.21547073
0.19350171
0.17299442
0.15403132
0.13655495
0.1203784
0.10522449
0.090863473
0.076903835
0.063897699
0.050884314
0.047103841
0.055492436
0.063507454
0.067879025
0.070772317
0.072833033
0.073883549
0.074084297
0.073694203
0.072854456
0.071648669
0.070151499
0.068425045
0.066516057
0.06446051
0.062287269
0.060019568
0.057676116
0.055272056
0.052819846
0.050329407
0.047808676
0.045264502
0.042702973
0.040129194
0.037547284
0.034960374
0.032370766
0.029780285
0.027190488
0.024602536
0.022017402
0.019435433
0.016856661
0.014279296
0.011703913
0.0091208886
0.0065438467
0.0039206552
0.0013269549
0.62996482
0.60185045
0.58659013
0.5803099
0.5743389
0.56795751
0.56225005
0.55721051
0.55246627
0.54785698
0.54335695
0.53894539
0.53459629
0.53029616
0.5260433
0.52184019
0.51769005
0.51359639
0.50956294
0.50559339
0.50169131
0.49786044
0.49410491
0.49042955
0.48684022
0.48334412
0.47995009
0.4766689
0.47351348
0.47049917
0.46764351
0.46496654
0.46248825
0.46023182
0.45820489
0.45643452
0.45482484
0.45342946
0.45138905
0.44842895
0.43908593
0.4182207
0.39269547
0.36753883
0.34222404
0.31628882
0.2904359
0.26524887
0.24096515
0.21776453
0.19583265
0.17530488
0.1562381
0.13858177
0.12219217
0.10685719
0.092421168
0.078679717
0.066268299
0.055341897
0.051480472
0.056921972
0.063580363
0.067735585
0.070476956
0.072444737
0.073510966
0.073755104
0.073401716
0.072594986
0.07141896
0.069946725
0.068240946
0.066349551
0.064309086
0.062148761
0.059892183
0.057558397
0.055162832
0.052718448
0.050235307
0.047721013
0.045182384
0.04262572
0.040056393
0.037478802
0.034896177
0.032310492
0.02972341
0.027136665
0.024551593
0.021969355
0.019390505
0.016814956
0.014242034
0.011670208
0.0090997107
0.0065187288
0.0039629016
0.0012404908
0.63025096
0.60212205
0.58683061
0.58050995
0.57449738
0.56807904
0.56233986
0.55727303
0.55250615
0.54787903
0.54336537
0.53894359
0.53458708
0.53028184
0.52602565
0.52182054
0.51766935
0.51357529
0.50954186
0.50557254
0.50167077
0.49784015
0.49408472
0.49040922
0.48681943
0.48332243
0.47992694
0.47664355
0.47348494
0.47046602
0.46760357
0.46491603
0.46242048
0.46013246
0.45804767
0.45615295
0.45431337
0.45238129
0.44953286
0.44493478
0.43517374
0.41645529
0.39249128
0.36778306
0.34283217
0.31730397
0.29171951
0.26669633
0.24253759
0.21942394
0.19753065
0.17699415
0.157869
0.14012087
0.12364288
0.10826852
0.093904424
0.080514446
0.068736122
0.059219121
0.055349519
0.058677094
0.06404031
0.067829593
0.070325106
0.072122342
0.073151867
0.07340953
0.073071732
0.072285328
0.0711345
0.069686699
0.068002724
0.066130858
0.064107848
0.061962981
0.05972007
0.057398402
0.055013619
0.052578607
0.050103634
0.0475969
0.04506542
0.042515434
0.039952316
0.037380844
0.034804837
0.032225826
0.029644671
0.027062774
0.02448179
0.021903672
0.019329359
0.016758603
0.014191794
0.011625347
0.0090693375
0.0064865003
0.0040008534
0.0011516959
0.63061608
0.60246797
0.58713488
0.58076073
0.57469461
0.56822943
0.56245018
0.55734902
0.55255393
0.54790478
0.54337436
0.53894006
0.53457455
0.53026316
0.52600301
0.52179557
0.5176432
0.51354876
0.50951543
0.50554647
0.50164514
0.49781489
0.49405963
0.49038401
0.48679368
0.48329562
0.47989839
0.47661239
0.47345005
0.47042584
0.46755588
0.46485726
0.4623447
0.46002786
0.45789308
0.45589903
0.45388201
0.45157832
0.44819095
0.44265353
0.43247873
0.41493765
0.39216516
0.36791937
0.34326506
0.31804856
0.29267659
0.26777777
0.24371117
0.22066393
0.19879931
0.17825373
0.15908304
0.1412596
0.12470226
0.10928763
0.094974364
0.081837345
0.070497865
0.06179011