/*--------------------------------*- C++ -*----------------------------------*\
| =========                 |                                                 |
| \\      /  F ield         | OpenFOAM: The Open Source CFD Toolbox           |
|  \\    /   O peration     | Version:  2412                                  |
|   \\  /    A nd           | Website:  www.openfoam.com                      |
|    \\/     M anipulation  |                                                 |
\*---------------------------------------------------------------------------*/
FoamFile
{
    version     2.0;
    format      ascii;
    arch        "LSB;label=32;scalar=64";
    class       volScalarField;
    location    "300";
    object      epsilon;
}
// * * * * * * * * * * * * * * * * * * * * * * * * * * * * * * * * * * * * * //

dimensions      [0 2 -3 0 0 0 0];

internalField   nonuniform List<scalar> 
12225
(
168090
190211
140848
93567.8
70801
58444
50253.1
44418.1
40232.6
37181.5
34908.5
33199.1
31927.4
31013
30426.5
30124.5
30211.5
28847.4
26542.1
42157.4
36117.2
26268.7
20026
16325.3
13924.2
12241.6
11026.7
10132.6
9460.11
8945.71
8549.94
8245.97
8021.38
7853.08
7762.01
7690.77
2753.8
8156.75
8712.81
7911.11
6750.75
5896.28
5237.69
4723.87
4318.23
3996.14
3738.17
3529.78
3360.25
3219.66
3104.68
3006.1
2902.37
2899.31
119.999
1584.07
2158.56
2236.09
2164.69
2054.46
1945.56
1857.4
1783.13
1717.95
1659.29
1607.33
1559.46
1516.12
1473.03
1437.68
1384.31
1361.26
41.0873
280.145
561.452
682.743
720.898
718.659
706.557
692.86
682.803
676.302
671.004
667.67
663.686
660.298
654.607
649.748
634.809
632.966
5.5603
57.8343
129.503
210.708
261.965
285.99
295.062
294.671
292.923
289.722
286.544
284.501
282.56
281.569
280.097
279.115
274.536
275.985
3.4207
21.7739
36.5647
64.5087
91.659
112.811
127.713
136.676
141.404
143.846
143.906
143.559
142.581
141.419
139.696
138.549
135.257
135.636
11.9797
15.2382
18.9801
27.1026
36.965
46.813
55.6409
62.9584
68.5135
72.7138
75.5367
77.415
78.4769
79.0089
78.9081
78.7721
77.5749
77.8756
14.0159
14.7544
15.5747
17.9064
21.2577
25.1014
28.9955
32.7117
35.992
38.8758
41.2264
43.2015
44.6656
45.8929
46.6297
47.317
47.4006
47.9726
14.5779
14.7285
14.9078
15.5347
16.6306
18.0587
19.6359
21.2872
22.8642
24.3884
25.7264
26.9928
28.0007
28.9893
29.6488
30.4033
30.7132
31.314
14.7404
14.713
14.7553
14.8906
15.2091
15.6983
16.2821
16.9531
17.6324
18.3471
19.0029
19.6779
20.2365
20.8333
21.2514
21.7703
22.0108
22.5098
14.7759
14.6821
14.6668
14.6902
14.7634
14.9265
15.1367
15.4022
15.6841
16.0079
16.3157
16.6566
16.9461
17.2752
17.5122
17.8204
17.9738
18.2835
14.7816
14.6571
14.5955
14.5599
14.5605
14.5832
14.6373
14.7141
14.8019
14.917
15.0305
15.17
15.291
15.4399
15.549
15.6983
15.7752
15.9357
14.776
14.6363
14.5367
14.4673
14.4176
14.3841
14.3647
14.3545
14.3559
14.3614
14.3745
14.395
14.4149
14.4485
14.4711
14.5085
14.5262
14.5705
14.771
14.6185
14.4957
14.3993
14.3196
14.2525
14.1951
14.1455
14.1006
14.0616
14.0241
13.993
13.9609
13.9367
13.9076
13.8894
13.8589
13.8483
14.7678
14.6063
14.4688
14.354
14.2548
14.167
14.0873
14.0148
13.9463
13.8827
13.8211
13.7638
13.707
13.6551
13.6016
13.5548
13.5029
13.4619
14.766
14.5993
14.4531
14.3269
14.2155
14.1149
14.0221
13.9357
13.8538
13.776
13.7008
13.6292
13.5593
13.4929
13.4273
13.366
13.3038
13.248
14.7654
14.5965
14.4463
14.3145
14.1968
14.0893
13.9894
13.8956
13.8064
13.7211
13.639
13.5599
13.4836
13.4101
13.339
13.2707
13.2046
13.1414
14.7661
14.5982
14.4487
14.3171
14.1992
14.091
13.9903
13.8954
13.8051
13.7184
13.6352
13.5549
13.4778
13.4032
13.3318
13.2628
13.1971
13.1332
14.7684
14.6057
14.4634
14.34
14.2303
14.1301
14.0376
13.9507
13.8693
13.7915
13.718
13.6474
13.5811
13.5171
13.458
13.4002
13.3484
13.2954
14.774
14.6189
14.4916
14.3861
14.2951
14.216
14.1481
14.0886
14.0405
13.9982
13.9655
13.9371
13.9176
13.9006
13.8916
13.8836
13.8834
13.877
14.7916
14.6288
14.5515
14.4952
14.4706
14.4737
14.5055
14.5656
14.6727
14.7914
14.9387
15.0835
15.2529
15.4055
15.5846
15.7302
15.9138
16.0391
14.8125
14.5998
14.816
14.9544
15.2429
15.5932
16.1712
16.8306
17.5779
18.3137
19.0871
19.7905
20.5213
21.1401
21.8036
22.3147
22.9133
23.3059
14.6189
14.6818
16.0058
17.2056
19.273
21.8145
24.7259
27.627
30.4793
33.0291
35.4124
37.3926
39.2574
40.6811
42.1124
43.0628
44.1853
44.7447
12.6439
15.2407
23.3336
32.4779
44.3251
55.953
66.6511
75.4456
82.4744
87.6805
91.5488
94.1962
96.0852
97.2107
98.0702
98.4142
98.8387
98.6497
7.4272
38.0303
80.6369
138.817
187.629
218.641
236.941
245.72
248.698
248.238
247.271
245.409
243.577
242.339
241.572
241.624
242.339
242.245
38.158
285.351
559.617
744.423
815.157
824.856
814.196
800.868
785.089
772.957
765.876
760.962
759.598
759.858
761.125
763.558
767.826
769.068
79.4258
2598.23
3663.26
3836.19
3684.04
3456.75
3221.2
3041.5
2892.26
2765.22
2656.05
2558.51
2472.27
2393.96
2324.48
2259.71
2203.84
2147.48
6743.11
20875.1
21815.7
19357.6
15854.2
13428.8
11698.1
10380.8
9334.71
8491.59
7808.17
7248.39
6785.7
6398.29
6071.16
5790.98
5549.96
5336.52
65726.9
118697
105717
79397.7
61561.1
51117.8
44115
38869.8
34800.3
31601.4
29047.5
26972.7
25261.9
23830.5
22617
21577.4
20671.5
19891.8
0.350897
0.186919
0.220409
0.266695
0.325921
0.39702
0.477944
0.565947
0.657943
0.750895
0.842141
0.929622
1.012
1.08863
1.15954
1.22535
1.28719
1.3467
1.40627
1.4696
1.54292
1.63792
1.77807
1.96675
2.19284
2.45145
2.74107
3.06208
3.41612
3.80567
4.23391
4.70457
5.22196
5.79096
6.41705
7.10632
7.86542
8.70158
9.62284
10.6381
11.7572
12.991
14.3514
15.8517
17.5062
19.331
21.3434
23.5624
26.0087
28.7047
31.6745
34.9439
38.5402
42.4919
46.8288
51.5825
56.7914
62.4944
68.7316
75.5441
82.9749
91.0677
99.8675
109.42
119.77
130.963
143.045
156.058
170.046
185.047
201.098
218.235
236.486
255.877
276.43
298.159
321.073
345.169
370.442
396.881
424.467
453.172
482.965
513.804
545.643
578.422
612.08
646.535
681.708
717.516
753.887
790.724
827.917
865.358
902.934
940.53
978.026
1015.3
1052.23
1088.69
1124.56
1159.7
1194
1227.32
1259.51
1290.48
1320.06
1348.18
1374.7
1399.53
1422.53
1443.65
1462.71
1479.57
1494.06
1506.08
1515.8
1523.29
1528.01
1530.8
1531.59
1529.8
1525.77
1519.45
1510.86
1500.03
1486.93
1471.71
1454.41
1435.11
1413.91
1390.88
1366.13
1339.77
1311.9
1282.66
1252.15
1220.51
1187.87
1154.34
1120
1085.08
1049.68
1013.99
978.098
942.139
906.251
870.556
835.176
800.221
765.803
732.023
698.983
666.784
635.538
605.377
576.512
552.012
555.955
575.6
596.414
617.283
638.206
659.197
680.259
701.37
722.499
743.606
764.641
785.534
806.203
826.536
846.384
865.518
883.617
900.003
914.16
921.729
927.377
877.049
0.427233
0.31805
0.271736
0.260089
0.269711
0.293522
0.327207
0.367813
0.413099
0.46128
0.510948
0.561064
0.611
0.660387
0.709206
0.757764
0.806706
0.857036
0.910236
0.968434
1.03467
1.11307
1.20829
1.32207
1.45348
1.60148
1.76558
1.94589
2.14305
2.35808
2.59236
2.84751
3.12543
3.42825
3.75833
4.11828
4.51092
4.93929
5.40674
5.91692
6.47381
7.08177
7.74551
8.47018
9.26133
10.125
11.0677
12.0965
13.2188
14.4425
15.776
17.2279
18.8072
20.5229
22.3841
24.4004
26.5836
28.9455
31.497
34.2498
37.2146
40.4029
43.8252
47.4921
51.4133
55.5984
60.0553
64.7922
69.8149
75.1297
80.74
86.6494
92.8588
99.3692
106.178
113.282
120.675
128.349
136.295
144.504
152.962
161.661
170.585
179.718
189.043
198.543
208.197
217.984
227.884
237.882
247.956
258.08
268.231
278.383
288.515
298.603
308.623
318.55
328.362
338.033
347.543
356.864
365.974
374.846
383.459
391.787
399.816
407.519
414.883
421.883
428.507
434.729
440.505
445.826
450.742
455.413
459.786
463.661
467.024
469.966
472.439
474.376
475.819
476.752
477.178
477.093
476.497
475.395
473.794
471.699
469.118
466.059
462.532
458.561
454.154
449.325
444.095
438.483
432.509
426.19
419.528
412.587
405.375
397.936
390.283
382.446
374.455
366.34
358.129
349.851
341.536
333.213
324.912
316.666
308.517
300.524
292.862
286.616
286.78
290.888
296.071
301.335
306.601
311.847
317.066
322.252
327.401
332.5
337.537
342.498
347.367
352.121
356.734
361.166
365.368
369.235
372.741
375.199
377.726
375.004
0.609669
0.436592
0.346367
0.302193
0.285757
0.287293
0.301069
0.323664
0.352661
0.386452
0.42392
0.464296
0.507082
0.552026
0.599115
0.648561
0.700815
0.756566
0.816781
0.882714
0.955906
1.03807
1.13082
1.23518
1.35159
1.48028
1.62155
1.77586
1.94392
2.12664
2.32512
2.54063
2.77461
3.02864
3.30445
3.60392
3.92907
4.28208
4.66531
5.08125
5.53259
6.02219
6.55309
7.12851
7.75182
8.42666
9.15701
9.94698
10.8006
11.7222
12.716
13.7866
14.9385
16.176
17.5036
18.9261
20.448
22.0737
23.8073
25.6529
27.614
29.6944
31.897
34.2247
36.6799
39.2648
41.9808
44.8292
47.8109
50.9262
54.1753
57.5578
61.0731
64.7206
68.4993
72.4052
76.435
80.5856
84.8537
89.2361
93.7289
98.3289
103.031
107.832
112.726
117.707
122.771
127.913
133.126
138.407
143.748
149.142
154.58
160.056
165.563
171.093
176.638
182.189
187.738
193.275
198.792
204.278
209.723
215.116
220.448
225.708
230.887
235.975
240.959
245.825
250.566
255.188
259.704
264.069
268.294
272.391
276.333
280.081
283.632
286.993
290.141
293.059
295.749
298.2
300.408
302.365
304.068
305.51
306.691
307.607
308.258
308.633
308.723
308.563
308.128
307.419
306.45
305.218
303.732
301.993
300.001
297.777
295.325
292.663
289.796
286.736
283.496
280.089
276.529
272.832
269.013
265.087
261.072
256.99
252.868
248.755
244.785
241.482
240.389
240.899
242.09
243.427
244.778
246.103
247.389
248.631
249.835
250.987
252.086
253.13
254.118
255.046
255.914
256.718
257.46
258.143
258.804
259.407
260.367
261.469
0.876051
0.597222
0.452392
0.376547
0.339785
0.327263
0.330885
0.345915
0.369448
0.399585
0.435104
0.47521
0.519414
0.567468
0.619334
0.675163
0.735293
0.800237
0.870691
0.947513
1.03171
1.12426
1.22612
1.33808
1.46083
1.59495
1.74106
1.89987
2.07219
2.25899
2.46137
2.68054
2.91778
3.17453
3.45231
3.75277
4.07767
4.42887
4.80834
5.21815
5.66048
6.1376
6.65185
7.20563
7.80129
8.44095
9.12606
9.85989
10.6457
11.4862
12.3844
13.3429
14.3644
15.4513
16.6061
17.8311
19.1296
20.504
21.956
23.4876
25.1007
26.7972
28.5789
30.4475
32.4043
34.4511
36.589
38.8195
41.1436
43.5626
46.0773
48.6889
51.3979
54.2052
57.111
60.1153
63.2181
66.4191
69.7182
73.1149
76.6086
80.1984
83.8833
87.6616
91.5315
95.4911
99.5378
103.669
107.882
112.175
116.543
120.98
125.484
130.048
134.667
139.337
144.051
148.803
153.587
158.394
163.219
168.053
172.887
177.714
182.527
187.316
192.075
196.794
201.465
206.088
210.655
215.153
219.575
223.906
228.144
232.281
236.302
240.192
243.943
247.548
250.996
254.276
257.381
260.303
263.035
265.57
267.901
270.021
271.919
273.597
275.051
276.275
277.265
278.032
278.568
278.849
278.907
278.728
278.323
277.686
276.819
275.731
274.428
272.918
271.207
269.303
267.214
264.951
262.524
259.944
257.223
254.374
251.41
248.351
245.217
242.05
238.948
236.2
234.412
233.443
232.903
232.505
232.133
231.743
231.318
230.85
230.318
229.74
229.121
228.464
227.772
227.049
226.3
225.533
224.763
224.019
223.35
222.847
222.773
223.328
1.17374
0.776037
0.573617
0.467164
0.413161
0.39079
0.38894
0.401292
0.42407
0.454968
0.492579
0.536047
0.584884
0.638856
0.697929
0.762231
0.832036
0.907746
0.989883
1.07905
1.17593
1.28129
1.3959
1.52051
1.65585
1.80263
1.96159
2.13353
2.31933
2.51993
2.73637
2.96978
3.22141
3.49256
3.78461
4.09902
4.43731
4.80107
5.19193
5.61162
6.0619
6.54457
7.0615
7.61462
8.20592
8.83762
9.5124
10.2321
10.9986
11.814
12.6804
13.6005
14.577
15.6114
16.7046
17.8574
19.069
20.3438
21.6857
23.0967
24.5788
26.134
27.7646
29.4727
31.2604
33.13
35.0836
37.1233
39.2513
41.4696
43.7803
46.1852
48.6861
51.2845
53.9819
56.7795
59.6784
62.6793
65.7829
68.9898
72.2999
75.7131
79.229
82.8467
86.5652
90.3828
94.2977
98.3078
102.411
106.604
110.884
115.246
119.686
124.2
128.783
133.429
138.133
142.889
147.69
152.53
157.401
162.295
167.205
172.124
177.042
181.952
186.849
191.725
196.571
201.377
206.134
210.832
215.461
220.011
224.474
228.839
233.096
237.232
241.238
245.106
248.825
252.385
255.778
258.995
262.03
264.873
267.519
269.96
272.191
274.207
276.003
277.575
278.917
280.032
280.915
281.561
281.969
282.131
282.076
281.784
281.26
280.509
279.537
278.35
276.953
275.355
273.562
271.584
269.431
267.112
264.639
262.023
259.279
256.421
253.469
250.457
247.453
244.621
242.238
240.291
238.613
237.048
235.511
233.963
232.39
230.785
229.149
227.481
225.784
224.062
222.322
220.57
218.814
217.067
215.347
213.686
212.125
210.789
209.822
209.433
1.44093
0.940714
0.690826
0.560454
0.49429
0.466296
0.462518
0.475266
0.500055
0.534193
0.576081
0.624776
0.679752
0.740761
0.807757
0.880846
0.960269
1.04637
1.1396
1.24047
1.34959
1.46759
1.59516
1.73301
1.88186
2.04245
2.21558
2.40207
2.60281
2.81875
3.05091
3.30038
3.56832
3.85594
4.16452
4.49538
4.84991
5.22953
5.63572
6.07001
6.53398
7.02923
7.55745
8.12037
8.71978
9.35756
10.0357
10.7558
11.5199
12.3298
13.1873
14.0941
15.0515
16.0622
17.1288
18.2543
19.4428
20.6964
22.0175
23.4078
24.8693
26.4045
28.0161
29.7069
31.4796
33.3369
35.2818
37.3168
39.4448
41.6685
43.9904
46.413
48.9386
51.5694
54.3075
57.1545
60.1122
63.1818
66.3646
69.6614
73.0726
76.5986
80.2391
83.9938
87.8618
91.8417
95.9319
100.13
104.435
108.843
113.35
117.954
122.649
127.43
132.293
137.232
142.242
147.315
152.445
157.624
162.846
168.101
173.381
178.677
183.981
189.283
194.572
199.839
205.077
210.275
215.423
220.51
225.527
230.461
235.302
240.041
244.664
249.162
253.523
257.738
261.794
265.684
269.396
272.923
276.254
279.383
282.301
285.001
287.477
289.724
291.735
293.506
295.033
296.315
297.348
298.129
298.659
298.92
298.948
298.723
298.251
297.534
296.579
295.392
293.979
292.348
290.507
288.465
286.232
283.819
281.237
278.499
275.617
272.608
269.487
266.282
263.041
259.86
256.883
254.135
251.547
249.036
246.549
244.055
241.542
239.007
236.45
233.873
231.282
228.681
226.078
223.482
220.903
218.356
215.862
213.458
211.189
209.161
207.459
206.141
1.63048
1.06942
0.792886
0.6499
0.578296
0.548945
0.546019
0.561107
0.589303
0.627698
0.67459
0.728987
0.790348
0.858413
0.933131
1.0146
1.10302
1.19873
1.30211
1.41365
1.53389
1.6634
1.80285
1.9529
2.11426
2.28768
2.47396
2.67392
2.88845
3.11848
3.36502
3.62911
3.91184
4.21439
4.53795
4.88378
5.25319
5.64753
6.06822
6.51671
6.99452
7.50322
8.04445
8.61991
9.23137
9.88067
10.5697
11.3003
12.0746
12.8945
13.7622
14.6798
15.6498
16.6748
17.7576
18.9013
20.1088
21.3827
22.725
24.1392
25.6291
27.1979
28.8492
30.5862
32.4126
34.3317
36.3471
38.4621
40.6802
43.0047
45.4387
47.9854
50.6475
53.4279
56.329
59.3531
62.5022
65.7782
69.1823
72.7159
76.3796
80.1739
84.0987
88.1536
92.3378
96.65
101.088
105.651
110.334
115.136
120.052
125.079
130.21
135.442
140.767
146.18
151.674
157.242
162.876
168.567
174.307
180.086
185.895
191.723
197.562
203.399
209.225
215.028
220.799
226.525
232.194
237.795
243.316
248.744
254.068
259.275
264.353
269.29
274.075
278.695
283.139
287.397
291.457
295.31
298.946
302.355
305.531
308.465
311.149
313.578
315.746
317.648
319.28
320.639
321.724
322.532
323.059
323.298
323.273
322.972
322.398
321.556
320.453
319.094
317.489
315.644
313.57
311.276
308.773
306.073
303.188
300.132
296.918
293.561
290.077
286.487
282.827
279.155
275.556
272.062
268.654
265.291
261.942
258.588
255.221
251.839
248.445
245.044
241.641
238.243
234.86
231.501
228.178
224.908
221.713
218.629
215.698
213.013
210.624
208.45
1.74186
1.17017
0.888146
0.741792
0.668859
0.639963
0.63862
0.656324
0.687966
0.730507
0.782166
0.841907
0.909157
0.98364
1.06529
1.15418
1.25052
1.35459
1.46677
1.5875
1.7173
1.85672
2.00638
2.16693
2.33907
2.52355
2.72115
2.9327
3.15908
3.40121
3.66008
3.93671
4.23219
4.54765
4.88429
5.24336
5.62615
6.03403
6.46842
6.93083
7.42282
7.94604
8.5022
9.09312
9.72071
10.387
11.0939
11.8439
12.639
13.4817
14.3746
15.3204
16.3219
17.3821
18.5042
19.6917
20.9477
22.2755
23.6787
25.1611
26.7266
28.3791
30.1228
31.9616
33.8996
35.9409
38.0896
40.3496
42.725
45.2197
47.8374
50.5817
53.4561
56.4638
59.6078
62.8909
66.3156
69.884
73.598
77.4589
81.4678
85.6252
89.9314
94.3859
98.9879
103.736
108.628
113.662
118.834
124.141
129.579
135.143
140.828
146.626
152.531
158.537
164.635
170.817
177.073
183.395
189.771
196.192
202.646
209.122
215.607
222.09
228.558
234.999
241.399
247.745
254.024
260.222
266.326
272.32
278.193
283.93
289.517
294.942
300.19
305.25
310.109
314.754
319.174
323.358
327.295
330.976
334.391
337.532
340.392
342.964
345.241
347.22
348.896
350.266
351.328
352.081
352.521
352.649
352.474
351.993
351.211
350.134
348.768
347.121
345.202
343.021
340.588
337.915
335.014
331.898
328.581
325.077
321.4
317.567
313.592
309.493
305.297
301.044
296.787
292.561
288.368
284.193
280.023
275.848
271.664
267.474
263.281
259.093
254.916
250.76
246.633
242.548
238.517
234.559
230.696
226.961
223.393
220.072
217.022
214.065
1.9197
1.32856
1.02578
0.863585
0.780591
0.746408
0.743007
0.760826
0.794134
0.839446
0.894704
0.9587
1.03076
1.11053
1.19791
1.29294
1.3958
1.50676
1.62617
1.75445
1.89211
2.03967
2.19774
2.36697
2.54804
2.7417
2.94873
3.16997
3.4063
3.65864
3.928
4.21541
4.52198
4.84887
5.19729
5.56856
5.96402
6.38512
6.83339
7.31042
7.81792
8.3577
8.93166
9.54183
10.1903
10.8795
11.6116
12.3892
13.2151
14.092
15.0229
16.0109
17.0596
18.1722
19.3525
20.6043
21.9315
23.3381
24.8283
26.4065
28.0773
29.8451
31.7147
33.6907
35.778
37.9812
40.305
42.7543
45.3337
48.0476
50.9005
53.8967
57.0401
60.3347
63.784
67.3912
71.1594
75.091
79.1881
83.4526
87.8855
92.4877
97.2593
102.2
107.308
112.583
118.022
123.621
129.378
135.288
141.347
147.548
153.884
160.35
166.935
173.633
180.434
187.327
194.303
201.351
208.457
215.61
222.797
230.004
237.218
244.425
251.609
258.757
265.852
272.88
279.825
286.672
293.405
300.007
306.465
312.762
318.884
324.816
330.542
336.05
341.324
346.353
351.122
355.621
359.837
363.761
367.383
370.693
373.684
376.35
378.683
380.679
382.335
383.648
384.616
385.238
385.513
385.446
385.038
384.287
383.206
381.8
380.077
378.046
375.717
373.102
370.213
367.063
363.666
360.037
356.19
352.142
347.908
343.504
338.946
334.251
329.44
324.541
319.595
314.632
309.667
304.7
299.731
294.756
289.777
284.8
279.831
274.878
269.95
265.056
260.209
255.419
250.703
246.077
241.565
237.198
233.008
229.065
225.376
221.696
2.73085
1.77485
1.30567
1.06023
0.93386
0.877107
0.862518
0.874873
0.90629
0.951872
1.00879
1.07541
1.15078
1.2344
1.32609
1.42581
1.53371
1.65004
1.77512
1.90937
2.05326
2.20734
2.37219
2.54846
2.73685
2.93811
3.15302
3.38246
3.62731
3.88856
4.16721
4.46437
4.78118
5.11889
5.47879
5.86227
6.27081
6.70599
7.16947
7.66305
8.18863
8.74824
9.34402
9.97829
10.6535
11.3722
12.1373
12.9515
13.8181
14.7403
15.7217
16.7658
17.8765
19.0579
20.3142
21.6498
23.0693
24.5773
26.1789
27.879
29.6828
31.5957
33.6231
35.7703
38.043
40.4465
42.9865
45.6683
48.4973
51.4789
54.6181
57.9199
61.3889
65.0296
68.8461
72.842
77.0209
81.3855
85.9382
90.6809
95.6149
100.741
106.059
111.568
117.267
123.154
129.226
135.479
141.909
148.51
155.277
162.203
169.279
176.497
183.848
191.321
198.905
206.59
214.362
222.208
230.114
238.066
246.049
254.048
262.045
270.026
277.972
285.868
293.695
301.436
309.073
316.59
323.967
331.189
338.237
345.094
351.745
358.172
364.36
370.293
375.957
381.336
386.418
391.19
395.64
399.756
403.529
406.949
410.009
412.702
415.021
416.962
418.523
419.701
420.495
420.906
420.934
420.591
419.856
418.752
417.286
415.464
413.297
410.796
407.973
404.84
401.412
397.703
393.729
389.508
385.054
380.387
375.523
370.479
365.271
359.917
354.433
348.846
343.185
337.479
331.748
326.004
320.25
314.494
308.74
302.995
297.269
291.572
285.912
280.303
274.756
269.283
263.902
258.628
253.486
248.502
243.708
239.16
234.854
230.508
4.05941
2.47371
1.71793
1.32956
1.12809
1.03123
0.995803
0.996524
1.02196
1.06488
1.1212
1.18854
1.26556
1.35151
1.44604
1.54904
1.6606
1.78092
1.91032
2.0492
2.19802
2.35734
2.52773
2.70987
2.90447
3.11229
3.33417
3.571
3.82373
4.09338
4.38105
4.6879
5.01519
5.36425
5.73652
6.13352
6.5569
7.00843
7.48997
8.00355
8.55134
9.13564
9.75892
10.4238
11.1332
11.89
12.6975
13.559
14.4782
15.4589
16.505
17.6209
18.8111
20.0801
21.433
22.8748
24.4107
26.0464
27.7875
29.6399
31.6095
33.7025
35.9251
38.2836
40.7843
43.4336
46.2379
49.2033
52.336
55.6421
59.1274
62.7973
66.6573
70.7123
74.9667
79.4248
84.09
88.9655
94.0538
99.3565
104.875
110.609
116.559
122.724
129.1
135.686
142.478
149.47
156.657
164.033
171.591
179.321
187.214
195.259
203.447
211.763
220.196
228.732
237.357
246.054
254.807
263.601
272.417
281.238
290.045
298.82
307.543
316.195
324.758
333.209
341.531
349.703
357.707
365.522
373.129
380.511
387.65
394.526
401.125
407.428
413.42
419.086
424.412
429.385
433.992
438.222
442.064
445.51
448.553
451.184
453.4
455.196
456.569
457.52
458.049
458.156
457.856
457.126
455.981
454.435
452.496
450.174
447.48
444.428
441.031
437.304
433.263
428.925
424.307
419.429
414.307
408.963
403.413
397.677
391.772
385.715
379.524
373.22
366.829
360.38
353.893
347.386
340.869
334.353
327.846
321.358
314.901
308.485
302.122
295.824
289.604
283.476
277.455
271.56
265.811
260.236
254.859
249.731
244.837
239.88
6.0119
3.44478
2.2612
1.66656
1.3585
1.20481
1.1385
1.12257
1.13802
1.1754
1.22887
1.2951
1.37218
1.45905
1.55515
1.66025
1.77437
1.89767
2.03044
2.17307
2.32603
2.48986
2.66519
2.8527
3.05313
3.2673
3.49609
3.74046
4.00143
4.28012
4.57771
4.89551
5.23489
5.59735
5.98449
6.39804
6.83987
7.31198
7.81653
8.35584
8.93239
9.54886
10.2081
10.9132
11.6675
12.4744
13.3376
14.2612
15.2493
16.3064
17.4371
18.6465
19.9398
21.3224
22.7999
24.3785
26.0641
27.8633
29.7826
31.8287
34.0087
36.3295
38.7983
41.4223
44.2088
47.1649
50.2978
53.6146
57.1221
60.827
64.7357
68.8542
73.1883
77.7433
82.5238
87.5342
92.7778
98.2577
103.976
109.934
116.132
122.57
129.247
136.161
143.307
150.683
158.283
166.1
174.127
182.357
190.78
199.385
208.161
217.095
226.174
235.384
244.71
254.135
263.643
273.215
282.834
292.48
302.134
311.774
321.382
330.934
340.411
349.79
359.05
368.169
377.126
385.898
394.465
402.806
410.9
418.729
426.272
433.51
440.427
447.004
453.225
459.076
464.54
469.606
474.26
478.492
482.292
485.651
488.562
491.018
493.018
494.555
495.63
496.244
496.399
496.112
495.357
494.145
492.495
490.413
487.911
485.002
481.699
478.018
473.973
469.582
464.864
459.836
454.518
448.93
443.093
437.028
430.755
424.293
417.661
410.878
403.961
396.93
389.81
382.627
375.402
368.157
360.904
353.659
346.433
339.238
332.085
324.988
317.958
311.009
304.154
297.407
290.784
284.303
277.984
271.851
265.924
260.25
254.806
249.301
8.77866
4.74119
2.94675
2.07034
1.62113
1.39333
1.28678
1.24924
1.25122
1.28055
1.32925
1.39284
1.46873
1.55548
1.65228
1.75877
1.87488
2.00071
2.13653
2.28272
2.43977
2.60824
2.78878
2.98211
3.18905
3.41047
3.64735
3.90073
4.17176
4.46168
4.77184
5.10369
5.45882
5.83893
6.24589
6.68168
7.14847
7.64861
8.18461
8.75919
9.37527
10.036
10.7448
11.5052
12.3212
13.1969
14.1367
15.1452
16.2275
17.3888
18.6347
19.9709
21.4037
22.9394
24.5848
26.3467
28.2324
30.2493
32.405
34.7073
37.1642
39.7837
42.5739
45.5429
48.6987
52.0494
55.6028
59.3666
63.3481
67.5545
71.9923
76.6679
81.5869
86.7546
92.1753
97.8529
103.79
109.99
116.453
123.179
130.169
137.42
144.93
152.695
160.709
168.968
177.464
186.188
195.132
204.284
213.634
223.169
232.875
242.737
252.738
262.863
273.094
283.413
293.8
304.234
314.696
325.163
335.614
346.026
356.376
366.641
376.798
386.823
396.692
406.384
415.873
425.137
434.154
442.901
451.358
459.504
467.318
474.782
481.877
488.585
494.891
500.779
506.235
511.245
515.799
519.885
523.494
526.619
529.255
531.395
533.039
534.183
534.824
534.975
534.651
533.821
532.497
530.701
528.439
525.722
522.566
518.983
514.991
510.605
505.844
500.728
495.276
489.508
483.445
477.111
470.527
463.715
456.697
449.493
442.125
434.611
426.969
419.221
411.388
403.495
395.565
387.618
379.673
371.744
363.846
355.992
348.194
340.467
332.822
325.274
317.836
310.522
303.348
296.331
289.489
282.845
276.415
270.241
264.295
258.312
12.6184
6.43659
3.79256
2.54252
1.91308
1.59304
1.43728
1.37244
1.35896
1.37818
1.42073
1.48072
1.55479
1.64103
1.73839
1.84633
1.96467
2.09348
2.23301
2.38362
2.54584
2.72027
2.90762
3.10868
3.32437
3.55567
3.80369
4.06963
4.35481
4.66067
4.98879
5.34087
5.71879
6.12458
6.56044
7.02876
7.53215
8.07342
8.65561
9.28201
9.95615
10.6819
11.4632
12.3047
13.2108
14.1868
15.2379
16.3697
17.5884
18.9002
20.3117
21.8299
23.4621
25.216
27.0993
29.1202
31.2871
33.6086
36.0934
38.7504
41.5884
44.6164
47.8433
51.2779
54.9288
58.8046
62.9133
67.2628
71.8604
76.713
81.8269
87.2079
92.861
98.7905
105
111.491
118.267
125.327
132.672
140.299
148.206
156.39
164.845
173.566
182.546
191.775
201.245
210.944
220.86
230.981
241.294
251.781
262.429
273.217
284.129
295.146
306.247
317.412
328.619
339.846
351.07
362.266
373.413
384.484
395.456
406.303
417.001
427.525
437.85
447.952
457.807
467.39
476.678
485.65
494.283
502.556
510.449
517.944
525.022
531.666
537.86
543.59
548.842
553.605
557.867
561.619
564.855
567.567
569.752
571.404
572.529
573.119
573.17
572.742
571.755
570.252
568.246
565.747
562.764
559.313
555.408
551.067
546.308
541.151
535.614
529.72
523.49
516.946
510.111
503.009
495.662
488.096
480.332
472.393
464.3
456.072
447.731
439.294
430.785
422.227
413.641
405.05
396.471
387.922
379.417
370.97
362.596
354.307
346.117
338.039
330.086
322.274
314.615
307.128
299.828
292.735
285.863
279.252
272.866
266.487
17.8879
8.63085
4.82327
3.08683
2.23193
1.80032
1.58649
1.48993
1.45927
1.46735
1.50335
1.55979
1.63245
1.71894
1.81789
1.9286
2.05078
2.18447
2.3299
2.48749
2.6578
2.84152
3.03947
3.25258
3.48192
3.72868
3.99417
4.27984
4.5873
4.91832
5.27483
5.65895
6.07298
6.51947
7.00117
7.52109
8.0825
8.68893
9.34423
10.0525
10.8183
11.6464
12.5419
13.5103
14.5576
15.69
16.9142
18.2374
19.6668
21.2103
22.8759
24.672
26.6073
28.6907
30.9316
33.3393
35.9233
38.6934
41.6593
44.8305
48.2166
51.8271
55.6711
59.7575
64.0947
68.6908
73.5534
78.6893
84.1051
89.8062
95.7975
102.083
108.666
115.549
122.732
130.217
138.001
146.084
154.462
163.13
172.084
181.317
190.821
200.586
210.604
220.863
231.35
242.052
252.953
264.039
275.294
286.699
298.235
309.884
321.624
333.435
345.294
357.179
369.067
380.933
392.754
404.504
416.158
427.691
439.077
450.29
461.306
472.097
482.641
492.91
502.882
512.532
521.838
530.776
539.326
547.467
555.18
562.447
569.251
575.575
581.407
586.731
591.535
595.811
599.548
602.74
605.383
607.466
608.999
609.96
610.382
610.239
609.571
608.321
606.543
604.24
601.421
598.097
594.285
589.999
585.259
580.083
574.491
568.505
562.146
555.439
548.404
541.066
533.45
525.579
517.479
509.174
500.688
492.044
483.264
474.367
465.374
456.306
447.183
438.027
428.859
419.701
410.57
401.485
392.459
383.509
374.647
365.886
357.24
348.721
340.342
332.118
324.061
316.186
308.509
301.049
293.814
286.843
280.093
273.413
25.3619
11.5626
6.11493
3.72843
2.58663
2.01863
1.73657
1.60428
1.55518
1.55255
1.583
1.63765
1.71123
1.80077
1.90459
2.0218
2.15206
2.29537
2.45204
2.62258
2.80769
3.00826
3.22531
3.46003
3.7138
3.98814
4.28477
4.60561
4.95277
5.32858
5.73561
6.17669
6.65493
7.17373
7.7368
8.34819
9.01232
9.73395
10.5182
11.3708
12.2975
13.3049
14.3996
15.589
16.8807
18.283
19.8046
21.4546
23.2426
25.1782
27.2712
29.5314
31.969
34.5944
37.418
40.4501
43.7011
47.1809
50.8995
54.8662
59.0901
63.5798
68.3431
73.3877
78.7199
84.3459
90.2706
96.4985
103.033
109.876
117.03
124.495
132.271
140.356
148.748
157.443
166.436
175.722
185.294
195.144
205.262
215.639
226.264
237.125
248.208
259.499
270.984
282.646
294.467
306.431
318.518
330.71
342.985
355.323
367.702
380.099
392.491
404.855
417.168
429.403
441.537
453.545
465.4
477.078
488.552
499.798
510.791
521.505
531.916
541.999
551.732
561.092
570.056
578.604
586.715
594.371
601.555
608.249
614.437
620.107
625.248
629.846
633.889
637.374
640.293
642.639
644.418
645.603
646.244
646.258
645.788
644.683
643.024
640.816
638.075
634.808
631.026
626.746
621.984
616.758
611.091
605
598.51
591.642
584.422
576.874
569.018
560.881
552.488
543.865
535.037
526.028
516.863
507.565
498.155
488.654
479.083
469.46
459.805
450.14
440.485
430.858
421.277
411.76
402.321
392.973
383.732
374.608
365.613
356.761
348.062
339.53
331.178
323.017
315.063
307.331
299.826
292.59
285.563
278.689
35.67
15.3743
7.68248
4.45403
2.96156
2.23594
1.88007
1.71261
1.64741
1.6387
1.66891
1.72781
1.80901
1.90893
2.02561
2.15808
2.30602
2.46958
2.64926
2.84587
3.06049
3.29442
3.54911
3.82629
4.12794
4.45629
4.81388
5.2035
5.62828
6.09165
6.59742
7.14976
7.75327
8.41298
9.13437
9.9234
10.7865
11.7306
12.7632
13.8921
15.1259
16.4733
17.9436
19.5465
21.2924
23.1918
25.2561
27.498
29.9308
32.5651
35.4115
38.4803
41.7821
45.327
49.1252
53.186
57.5182
62.1301
67.029
72.2216
77.7133
83.5091
89.6126
96.027
102.754
109.794
117.149
124.815
132.793
141.078
149.668
158.558
167.742
177.213
186.966
196.991
207.28
217.822
228.608
239.625
250.861
262.304
273.94
285.754
297.731
309.856
322.111
334.48
346.944
359.483
372.081
384.715
397.367
410.014
422.635
435.207
447.709
460.118
472.41
484.562
496.55
508.35
519.937
531.287
542.376
553.181
563.677
573.843
583.654
593.088
602.124
610.742
618.921
626.644
633.89
640.645
646.894
652.623
657.814
662.46
666.556
670.087
673.038
675.425
677.23
678.447
679.111
679.127
678.672
677.564
675.897
673.67
670.893
667.576
663.746
659.403
654.563
649.246
643.471
637.258
630.629
623.606
616.213
608.474
600.406
592.014
583.348
574.44
565.314
555.995
546.508
536.877
527.126
517.276
507.349
497.364
487.341
477.297
467.252
457.224
447.23
437.289
427.415
417.624
407.93
398.346
388.884
379.555
370.369
361.338
352.472
343.782
335.279
326.974
318.879
311.008
303.363
295.989
288.8
281.873
48.9239
19.9852
9.44107
5.20736
3.3246
2.43691
2.01325
1.81991
1.74886
1.74359
1.78462
1.85955
1.96075
2.08423
2.22798
2.39122
2.57391
2.77663
3.00039
3.24659
3.51697
3.81359
4.13894
4.49583
4.88746
5.31747
5.78997
6.30945
6.88092
7.5099
8.20247
8.96533
9.80575
10.7317
11.7518
12.8753
14.112
15.4724
16.9675
18.6089
20.4084
22.378
24.5301
26.8772
29.4326
32.209
35.2194
38.4772
41.9948
45.7891
49.867
54.2345
58.8988
63.8662
69.1423
74.7315
80.637
86.861
93.4044
100.267
107.447
114.941
122.748
130.861
139.277
147.988
156.988
166.27
175.826
185.646
195.723
206.046