/*--------------------------------*- C++ -*----------------------------------*\
| =========                 |                                                 |
| \\      /  F ield         | OpenFOAM: The Open Source CFD Toolbox           |
|  \\    /   O peration     | Version:  2412                                  |
|   \\  /    A nd           | Website:  www.openfoam.com                      |
|    \\/     M anipulation  |                                                 |
\*---------------------------------------------------------------------------*/
FoamFile
{
    version     2.0;
    format      ascii;
    arch        "LSB;label=32;scalar=64";
    class       volScalarField;
    location    "300";
    object      k;
}
// * * * * * * * * * * * * * * * * * * * * * * * * * * * * * * * * * * * * * //

dimensions      [0 2 -2 0 0 0 0];

internalField   nonuniform List<scalar> 
12225
(
16.4739
17.883
14.6432
11.1485
9.25775
8.14637
7.36613
6.78419
6.35095
6.02561
5.77742
5.58721
5.44363
5.33901
5.27199
5.23605
5.24738
5.08596
3.58968
6.10261
5.80175
5.01006
4.24043
3.71295
3.338
3.05942
2.84821
2.68602
2.55954
2.45963
2.3805
2.31721
2.26926
2.2272
2.2144
2.13971
0.644944
1.62801
2.03657
2.05494
2.02041
1.94056
1.84451
1.75374
1.67224
1.60091
1.53924
1.48631
1.44124
1.40113
1.36896
1.33377
1.31094
1.28087
0.412023
0.510239
0.69494
0.787569
0.844324
0.881167
0.904723
0.9191
0.927462
0.930224
0.929391
0.926756
0.921855
0.914799
0.907202
0.897237
0.883768
0.874536
0.384327
0.386022
0.396191
0.406509
0.416801
0.429091
0.441779
0.455197
0.468852
0.482442
0.494665
0.506818
0.516527
0.526147
0.53228
0.538384
0.539888
0.542256
0.384875
0.386655
0.383143
0.371382
0.355743
0.341435
0.330037
0.321581
0.316491
0.313222
0.313326
0.314121
0.315972
0.319247
0.321676
0.32548
0.3274
0.330305
0.382598
0.389939
0.390201
0.385297
0.375454
0.361411
0.347351
0.333492
0.32197
0.311596
0.303084
0.295286
0.289199
0.283668
0.279801
0.275936
0.273685
0.270908
0.378658
0.387378
0.391349
0.390876
0.388184
0.382293
0.375307
0.36664
0.357844
0.347908
0.339316
0.330349
0.32321
0.315483
0.31005
0.303583
0.299852
0.294466
0.375962
0.382123
0.387269
0.389453
0.389163
0.387783
0.385307
0.381598
0.377685
0.372573
0.367864
0.362202
0.357563
0.351937
0.347884
0.342562
0.339385
0.334362
0.374815
0.378033
0.381479
0.384572
0.386156
0.386381
0.385987
0.384936
0.383424
0.381155
0.378942
0.376026
0.373519
0.370342
0.367902
0.364678
0.362518
0.359271
0.37458
0.375462
0.376952
0.379346
0.381237
0.382386
0.383143
0.383107
0.38281
0.382099
0.381154
0.379799
0.37852
0.376874
0.375457
0.373677
0.372249
0.370382
0.374196
0.374011
0.374431
0.375545
0.376902
0.37803
0.378982
0.379515
0.379715
0.379634
0.379371
0.378821
0.378146
0.377255
0.376389
0.375359
0.374369
0.373257
0.374094
0.372894
0.372738
0.372931
0.373423
0.374097
0.374788
0.375347
0.375723
0.375885
0.375856
0.375746
0.375492
0.375072
0.374567
0.373975
0.373291
0.372602
0.374004
0.37233
0.371373
0.37091
0.370738
0.37076
0.370855
0.371036
0.37119
0.37127
0.371251
0.371194
0.371052
0.370828
0.370503
0.370154
0.369662
0.369246
0.37392
0.371993
0.370558
0.369556
0.368816
0.368264
0.367838
0.367507
0.36722
0.366952
0.366675
0.366396
0.366085
0.365769
0.365387
0.365031
0.36455
0.364187
0.373864
0.371776
0.370064
0.368711
0.367598
0.36665
0.36582
0.365078
0.364391
0.363747
0.363122
0.362526
0.361928
0.361359
0.360762
0.360215
0.359592
0.35909
0.373832
0.371651
0.369781
0.368218
0.366878
0.365689
0.364607
0.363604
0.362654
0.361746
0.360863
0.360012
0.359174
0.358369
0.357563
0.356805
0.35602
0.355324
0.373821
0.371602
0.36966
0.367995
0.366537
0.365221
0.364006
0.362864
0.361773
0.360721
0.3597
0.358707
0.357739
0.356798
0.355879
0.354991
0.354122
0.353289
0.373832
0.371631
0.369702
0.368042
0.36658
0.365253
0.364022
0.362859
0.361746
0.360669
0.359623
0.358604
0.357613
0.356647
0.35571
0.354798
0.353919
0.353061
0.373871
0.371765
0.369965
0.368457
0.36715
0.365971
0.364886
0.363865
0.36289
0.361943
0.36102
0.360115
0.359231
0.358363
0.357519
0.356687
0.355888
0.355088
0.373942
0.372022
0.37049
0.369304
0.368323
0.36746
0.366673
0.365938
0.365212
0.364484
0.363738
0.36299
0.362232
0.361456
0.360667
0.359864
0.359067
0.358246
0.374062
0.372521
0.371541
0.370989
0.370587
0.370195
0.369814
0.369389
0.368823
0.368156
0.367357
0.366473
0.365473
0.364443
0.363339
0.362233
0.36107
0.359932
0.374216
0.373617
0.373709
0.374032
0.374087
0.373968
0.373604
0.372778
0.371606
0.370261
0.36866
0.36698
0.365057
0.363117
0.360959
0.358891
0.356619
0.354535
0.374496
0.375888
0.377122
0.377544
0.377221
0.376349
0.374368
0.371669
0.368325
0.364704
0.360663
0.356414
0.351599
0.346928
0.341969
0.337515
0.332701
0.328609
0.375424
0.37875
0.379417
0.37801
0.375746
0.370674
0.363119
0.354899
0.346008
0.337348
0.328602
0.320644
0.313291
0.306691
0.30061
0.294983
0.29
0.285397
0.377466
0.380152
0.379441
0.373218
0.367156
0.356442
0.345416
0.335621
0.327267
0.320946
0.315906
0.312896
0.310617
0.310534
0.311052
0.312684
0.31541
0.317975
0.384428
0.396473
0.428806
0.458045
0.478599
0.496324
0.511829
0.526437
0.542061
0.556971
0.57359
0.588777
0.605777
0.62061
0.63738
0.651613
0.667885
0.680808
0.507675
0.759479
1.11902
1.30431
1.38772
1.42364
1.44117
1.45178
1.45248
1.45075
1.44627
1.43817
1.42922
1.41851
1.40817
1.39647
1.3863
1.374
1.57445
4.09662
4.77619
4.60824
4.25736
3.91227
3.6192
3.36936
3.1544
2.97069
2.81497
2.68253
2.56985
2.47302
2.38969
2.31687
2.25346
2.19647
10.5954
15.6933
14.541
12.0069
10.1373
8.95608
8.11827
7.46131
6.93097
6.4994
6.1443
5.8481
5.59809
5.38456
5.20017
5.03957
4.89752
4.77361
0.0037576
0.00409396
0.0045676
0.00518452
0.00592397
0.00675457
0.00764135
0.00855014
0.00945057
0.0103181
0.0111349
0.01189
0.012579
0.0132027
0.0137661
0.0142782
0.0147503
0.015197
0.0156372
0.016098
0.0166234
0.0172924
0.0182572
0.0195195
0.0209809
0.0225923
0.0243305
0.0261866
0.0281591
0.0302514
0.0324698
0.0348222
0.0373183
0.0399688
0.0427856
0.0457814
0.0489692
0.0523627
0.0559764
0.059826
0.0639283
0.0683009
0.0729628
0.0779339
0.0832353
0.0888894
0.0949195
0.10135
0.108206
0.115515
0.123302
0.131594
0.140417
0.149797
0.159758
0.170324
0.18153
0.193407
0.205983
0.219285
0.233339
0.248167
0.263791
0.280229
0.2975
0.315615
0.334586
0.354419
0.375116
0.396676
0.419095
0.442363
0.466466
0.491385
0.517099
0.543579
0.570792
0.598694
0.627245
0.656399
0.686107
0.716313
0.746967
0.778007
0.809374
0.841001
0.872821
0.904755
0.936731
0.968683
1.00056
1.03228
1.06376
1.09494
1.12572
1.15605
1.18584
1.21503
1.24353
1.27129
1.29823
1.32429
1.3494
1.37349
1.39649
1.41835
1.43899
1.45838
1.47643
1.49314
1.50842
1.52226
1.53456
1.54524
1.55422
1.56144
1.56701
1.57104
1.57313
1.57386
1.57323
1.57083
1.56688
1.56136
1.55427
1.54562
1.5354
1.52369
1.51051
1.49591
1.47992
1.46259
1.44397
1.42412
1.4031
1.38097
1.35778
1.33362
1.30855
1.28263
1.2559
1.2285
1.20049
1.17199
1.14305
1.11376
1.08421
1.05448
1.02466
0.99483
0.965081
0.935492
0.906152
0.87715
0.848595
0.820614
0.793414
0.769804
0.772076
0.789228
0.807237
0.825021
0.84259
0.859964
0.877153
0.894144
0.910916
0.927445
0.943695
0.959619
0.975159
0.990238
1.00475
1.01853
1.03134
1.04269
1.05222
1.05662
1.05952
1.01947
0.00428395
0.00442781
0.00485928
0.00549612
0.00628327
0.00717949
0.00815172
0.00917314
0.0102229
0.0112855
0.0123509
0.0134136
0.0144714
0.0155257
0.0165811
0.0176442
0.0187235
0.0198283
0.0209706
0.0221655
0.0234337
0.0248013
0.026297
0.0279276
0.0296823
0.0315501
0.0335247
0.0356041
0.0377896
0.0400845
0.042494
0.0450242
0.0476822
0.0504759
0.0534144
0.0565086
0.0597671
0.063198
0.0668111
0.0706168
0.0746263
0.0788514
0.0833044
0.0879984
0.0929469
0.0981642
0.103664
0.109463
0.115575
0.122017
0.128805
0.135955
0.143479
0.151389
0.159683
0.168347
0.177426
0.18694
0.196903
0.207327
0.218223
0.229601
0.241471
0.25384
0.266714
0.2801
0.294
0.308418
0.323353
0.338806
0.354775
0.371259
0.388251
0.405751
0.423751
0.442247
0.461231
0.480674
0.50056
0.520878
0.54161
0.562745
0.584264
0.606158
0.628404
0.650988
0.673889
0.697087
0.720566
0.744313
0.76831
0.792526
0.816937
0.841523
0.866262
0.891129
0.916102
0.941153
0.966259
0.991389
1.01652
1.04162
1.06665
1.09159
1.1164
1.14105
1.1655
1.18974
1.21372
1.23742
1.26082
1.28392
1.30676
1.32906
1.35081
1.37195
1.39256
1.41262
1.43206
1.45092
1.46917
1.48672
1.50356
1.51968
1.53506
1.54971
1.5636
1.57668
1.58892
1.6003
1.61081
1.62043
1.62915
1.63695
1.64383
1.64978
1.65479
1.65885
1.66197
1.66416
1.66525
1.66548
1.66475
1.66319
1.66073
1.65741
1.65325
1.64829
1.64255
1.63608
1.6289
1.62105
1.61256
1.60345
1.59377
1.58355
1.57287
1.56245
1.55593
1.55168
1.54692
1.54143
1.53529
1.52858
1.52135
1.51365
1.50549
1.49691
1.48792
1.47855
1.46881
1.45871
1.44824
1.43739
1.42615
1.41444
1.40213
1.3891
1.37522
1.33309
0.0054291
0.00539707
0.0058621
0.0066731
0.00772472
0.00894277
0.0102743
0.0116824
0.0131424
0.014639
0.0161636
0.0177127
0.0192873
0.0208903
0.0225265
0.0242014
0.0259216
0.0276952
0.0295311
0.0314397
0.0334329
0.0355233
0.0377231
0.04004
0.042478
0.0450395
0.0477274
0.0505457
0.0534995
0.056595
0.0598393
0.0632399
0.0668049
0.0705424
0.0744607
0.0785671
0.0828719
0.087386
0.09212
0.0970845
0.10229
0.107749
0.113472
0.119472
0.125761
0.132352
0.139257
0.14649
0.154063
0.161991
0.170286
0.178965
0.188043
0.197538
0.207471
0.217874
0.228735
0.240063
0.251872
0.264172
0.276978
0.2903
0.30415
0.318538
0.333476
0.348974
0.365039
0.381683
0.398912
0.416735
0.435159
0.454191
0.473836
0.494102
0.514992
0.536513
0.558667
0.58144
0.604828
0.62883
0.653439
0.678653
0.704463
0.730862
0.757838
0.78538
0.813472
0.842098
0.871244
0.900895
0.931028
0.961613
0.992622
1.02403
1.05581
1.08792
1.12034
1.15304
1.18596
1.21908
1.25236
1.28574
1.31919
1.35265
1.38609
1.41944
1.45267
1.48573
1.51855
1.55109
1.58328
1.61503
1.64622
1.67692
1.70709
1.73669
1.76569
1.79406
1.82175
1.84872
1.87493
1.90031
1.92484
1.94848
1.97118
1.99292
2.01366
2.03336
2.05198
2.06949
2.08586
2.10108
2.11511
2.12793
2.13953
2.1499
2.15903
2.1669
2.1735
2.17884
2.18286
2.18561
2.18703
2.18734
2.18643
2.18433
2.18107
2.17668
2.17121
2.16469
2.15716
2.14867
2.13924
2.12894
2.1178
2.10589
2.09336
2.08073
2.06962
2.05935
2.04864
2.03716
2.02492
2.01196
1.99836
1.98414
1.96938
1.95411
1.93835
1.92214
1.90552
1.88851
1.87115
1.85346
1.83549
1.81728
1.79884
1.7806
1.76252
1.72493
0.00691285
0.00674603
0.00733955
0.00844751
0.00989967
0.0115753
0.0133909
0.0152932
0.0172511
0.0192486
0.0212791
0.0233421
0.0254408
0.0275802
0.0297669
0.0320082
0.034312
0.036687
0.0391423
0.0416879
0.0443342
0.0470919
0.0499713
0.0529815
0.0561304
0.0594249
0.0628723
0.0664797
0.0702548
0.0742059
0.0783418
0.0826714
0.0872044
0.0919505
0.0969195
0.102122
0.107568
0.11327
0.11924
0.125488
0.132027
0.138869
0.146027
0.153515
0.161345
0.169532
0.17809
0.187033
0.196374
0.20613
0.216316
0.226948
0.238043
0.24962
0.261696
0.274289
0.287409
0.30107
0.315287
0.330078
0.34546
0.361448
0.378061
0.395313
0.413222
0.431804
0.451074
0.471047
0.491736
0.513156
0.535318
0.558234
0.581912
0.60636
0.631584
0.657587
0.68437
0.711929
0.740261
0.769361
0.799221
0.829832
0.861181
0.893253
0.926031
0.959494
0.993619
1.02838
1.06376
1.09972
1.13624
1.17327
1.21079
1.24874
1.28709
1.3258
1.36483
1.40413
1.44365
1.48334
1.52315
1.56304
1.60293
1.64278
1.68254
1.72214
1.76152
1.80064
1.83942
1.87781
1.91574
1.95315
1.98999
2.02623
2.06182
2.09671
2.13086
2.1642
2.1967
2.22829
2.25893
2.28856
2.31713
2.3446
2.37093
2.39606
2.41997
2.4426
2.46394
2.48393
2.50254
2.51976
2.53556
2.54991
2.5628
2.57422
2.58416
2.59261
2.59956
2.60501
2.60894
2.6113
2.6122
2.61172
2.6098
2.60649
2.60181
2.59582
2.58854
2.58004
2.57036
2.55954
2.54765
2.53474
2.52087
2.50612
2.49066
2.47491
2.45973
2.44483
2.42953
2.41351
2.39671
2.37916
2.36092
2.34204
2.32257
2.30257
2.28208
2.26114
2.2398
2.2181
2.19611
2.17389
2.1515
2.12909
2.10676
2.08509
2.06381
2.02963
0.00840152
0.00822323
0.00907539
0.0106039
0.0125631
0.0147785
0.0171342
0.0195628
0.0220308
0.0245251
0.0270441
0.0295919
0.0321759
0.0348047
0.0374879
0.0402354
0.0430571
0.0459635
0.048965
0.0520725
0.0552968
0.0586487
0.062139
0.0657778
0.0695746
0.0735387
0.0776793
0.0820055
0.0865268
0.0912529
0.0961937
0.101359
0.106761
0.112409
0.118315
0.12449
0.130947
0.137697
0.144753
0.152128
0.159835
0.167889
0.176301
0.185088
0.194264
0.203844
0.213843
0.224278
0.235168
0.246529
0.258381
0.270743
0.283634
0.297075
0.311086
0.325687
0.340898
0.356738
0.373229
0.390392
0.408249
0.426823
0.446136
0.466207
0.487058
0.508709
0.531177
0.554481
0.578635
0.603655
0.629552
0.656338
0.684018
0.712601
0.742087
0.772477
0.803769
0.835956
0.869032
0.902986
0.937804
0.973472
1.00997
1.04728
1.08537
1.12422
1.1638
1.20407
1.24501
1.28658
1.32874
1.37145
1.41465
1.45832
1.50239
1.54682
1.59157
1.63656
1.68176
1.72711
1.77254
1.81799
1.86341
1.90873
1.95389
1.99883
2.04348
2.08778
2.13167
2.17507
2.21793
2.26019
2.30177
2.34264
2.38273
2.42199
2.46036
2.49777
2.53416
2.56949
2.60368
2.63669
2.66846
2.69893
2.72806
2.7558
2.7821
2.80693
2.83024
2.852
2.87217
2.89072
2.90764
2.9229
2.93648
2.94837
2.95857
2.96706
2.97385
2.97892
2.98226
2.98383
2.98379
2.98212
2.97882
2.97395
2.96753
2.95963
2.95028
2.93954
2.92748
2.91414
2.89959
2.88391
2.86715
2.84941
2.83084
2.81175
2.79263
2.7734
2.75372
2.73333
2.71216
2.69024
2.6676
2.64432
2.62043
2.59601
2.57111
2.54579
2.52011
2.49414
2.46794
2.4416
2.41525
2.38906
2.36323
2.33834
2.314
2.28083
0.00963289
0.00964988
0.0109234
0.0129974
0.0155508
0.0183573
0.0212757
0.0242323
0.0271974
0.0301649
0.0331401
0.0361335
0.0391578
0.042226
0.0453513
0.0485465
0.0518243
0.0551967
0.0586761
0.0622741
0.0660028
0.0698736
0.0738979
0.0780868
0.082451
0.0870012
0.0917477
0.0967009
0.101872
0.10727
0.112908
0.118796
0.124946
0.131369
0.138079
0.145088
0.152409
0.160054
0.168039
0.176378
0.185085
0.194176
0.203666
0.213573
0.223914
0.234707
0.245971
0.257727
0.269995
0.282796
0.296153
0.31009
0.324628
0.339793
0.355606
0.372092
0.389276
0.407185
0.425844
0.445279
0.465518
0.486583
0.5085
0.531292
0.554981
0.579588
0.605132
0.631631
0.659099
0.687551
0.716997
0.747446
0.778903
0.811372
0.844853
0.879342
0.914834
0.951322
0.988793
1.02723
1.06663
1.10695
1.14819
1.19031
1.23328
1.27708
1.32167
1.36701
1.41306
1.45979
1.50714
1.55508
1.60355
1.65249
1.70186
1.7516
1.80164
1.85194
1.90243
1.95304
2.00372
2.05438
2.10498
2.15542
2.20565
2.2556
2.30519
2.35436
2.40304
2.45114
2.49861
2.54537
2.59136
2.6365
2.68074
2.724
2.76622
2.80733
2.84727
2.88597
2.92336
2.9594
2.994
3.02713
3.05872
3.08873
3.1171
3.1438
3.16877
3.19199
3.21341
3.23301
3.25076
3.26664
3.28063
3.29272
3.30291
3.31119
3.31757
3.32203
3.32453
3.32514
3.32391
3.32084
3.31597
3.30934
3.30101
3.29103
3.27945
3.26633
3.25175
3.23576
3.21843
3.19986
3.18009
3.15924
3.13741
3.11483
3.09183
3.06841
3.04443
3.01973
2.99425
2.96801
2.94105
2.91345
2.88525
2.85654
2.82737
2.79782
2.76795
2.73786
2.70762
2.67736
2.64721
2.6174
2.58817
2.56006
2.53263
2.49881
0.0104605
0.0109354
0.012804
0.0155355
0.0187464
0.0221713
0.025656
0.0291294
0.0325702
0.0359816
0.0393772
0.0427745
0.046192
0.0496476
0.0531587
0.0567415
0.0604114
0.0641829
0.0680701
0.0720862
0.0762443
0.0805569
0.0850362
0.0896943
0.0945427
0.099593
0.104857
0.110345
0.116069
0.122041
0.128273
0.134777
0.141565
0.148651
0.156048
0.16377
0.171832
0.180249
0.189036
0.198209
0.207787
0.217786
0.228225
0.239125
0.250505
0.262387
0.274793
0.287748
0.301275
0.3154
0.330149
0.345548
0.361624
0.378404
0.395918
0.414193
0.433259
0.453146
0.473882
0.495494
0.518011
0.541459
0.565863
0.591249
0.617638
0.645053
0.673512
0.703033
0.733631
0.765318
0.798104
0.831997
0.867002
0.903119
0.940348
0.978684
1.01812
1.05865
1.10025
1.14291
1.18661
1.23133
1.27704
1.32371
1.37131
1.4198
1.46915
1.51932
1.57025
1.62191
1.67424
1.7272
1.78072
1.83474
1.88921
1.94406
1.99924
2.05466
2.11026
2.16598
2.22173
2.27745
2.33306
2.38847
2.44361
2.49841
2.55279
2.60666
2.65995
2.71258
2.76446
2.81553
2.86571
2.91491
2.96307
3.0101
3.05595
3.10053
3.14377
3.18561
3.22596
3.26477
3.30198
3.33751
3.37131
3.40334
3.43353
3.46184
3.48822
3.51264
3.53506
3.55545
3.57378
3.59004
3.6042
3.61626
3.62621
3.63404
3.63978
3.6434
3.64489
3.64431
3.64167
3.63701
3.63038
3.62183
3.61142
3.5992
3.58523
3.56959
3.55235
3.53358
3.51337
3.49178
3.4689
3.44481
3.41962
3.39349
3.36663
3.33915
3.31097
3.28204
3.25233
3.22186
3.19067
3.15884
3.12644
3.09354
3.06022
3.02656
2.99264
2.95856
2.92443
2.89037
2.85656
2.82323
2.79066
2.75934
2.72878
2.69333
0.0109313
0.0121144
0.0147095
0.0181652
0.0220612
0.0261082
0.0301483
0.0341177
0.0380057
0.0418257
0.0456004
0.0493548
0.0531139
0.0569012
0.0607386
0.0646461
0.0686425
0.0727449
0.0769694
0.0813312
0.0858446
0.0905232
0.0953804
0.100429
0.105681
0.11115
0.116846
0.122784
0.128974
0.135431
0.142165
0.149192
0.156524
0.164177
0.172164
0.180502
0.189207
0.198296
0.207786
0.217697
0.228048
0.238859
0.250153
0.261952
0.27428
0.287161
0.300622
0.314689
0.329391
0.344755
0.360811
0.37759
0.395121
0.413436
0.432566
0.452542
0.473398
0.495163
0.517868
0.541544
0.56622
0.591923
0.618682
0.64652
0.675463
0.705532
0.736746
0.769124
0.80268
0.837428
0.873377
0.910534
0.948904
0.988488
1.02928
1.07129
1.11449
1.15888
1.20444
1.25115
1.29899
1.34794
1.39797
1.44904
1.50112
1.55417
1.60815
1.663
1.71869
1.77516
1.83235
1.8902
1.94866
2.00765
2.06711
2.12696
2.18715
2.24758
2.30819
2.36889
2.42961
2.49025
2.55074
2.61098
2.6709
2.73041
2.78942
2.84783
2.90557
2.96254
3.01867
3.07385
3.12801
3.18106
3.23293
3.28352
3.33276
3.38057
3.42687
3.47159
3.51466
3.55599
3.59553
3.6332
3.66895
3.70272
3.73446
3.76412
3.79164
3.817
3.84015
3.86106
3.87972
3.89609
3.91017
3.92194
3.93141
3.93856
3.94343
3.94599
3.94626
3.94428
3.94002
3.93359
3.92502
3.91439
3.90174
3.88714
3.87066
3.85237
3.83237
3.81072
3.78752
3.76285
3.73678
3.70939
3.68078
3.65108
3.62046
3.58903
3.55681
3.52379
3.48998
3.45541
3.42014
3.38424
3.34778
3.31085
3.27354
3.23594
3.19814
3.16024
3.12238
3.08469
3.04736
3.01065
2.97481
2.94032
2.90667
2.86923
0.0116593
0.0135088
0.0167586
0.0208874
0.025436
0.0300793
0.0346472
0.03908
0.0433768
0.0475615
0.0516665
0.055725
0.0597691
0.0638284
0.0679298
0.0720977
0.0763544
0.08072
0.085213
0.0898505
0.0946483
0.0996214
0.104784
0.11015
0.115732
0.121544
0.127599
0.13391
0.14049
0.147353
0.154512
0.161983
0.169781
0.177921
0.18642
0.195296
0.204566
0.21425
0.224367
0.23494
0.245991
0.257541
0.269618
0.282245
0.29545
0.309261
0.323706
0.338816
0.354622
0.371155
0.388447
0.406532
0.425443
0.445214
0.465879
0.487471
0.510025
0.533574
0.558151
0.583787
0.610514
0.638362
0.667358
0.69753
0.728903
0.7615
0.795342
0.830447
0.866831
0.904508
0.943489
0.983781
1.02539
1.06831
1.11255
1.1581
1.20495
1.25308
1.30248
1.35314
1.40502
1.4581
1.51234
1.56771
1.62417
1.68168
1.74019
1.79964
1.85998
1.92115
1.9831
2.04575
2.10904
2.17289
2.23722
2.30196
2.36704
2.43235
2.49783
2.56337
2.6289
2.69431
2.75952
2.82443
2.88894
2.95296
3.01639
3.07914
3.14111
3.2022
3.26231
3.32136
3.37924
3.43588
3.49117
3.54503
3.59738
3.64813
3.69719
3.74449
3.78994
3.83348
3.87504
3.91454
3.95192
3.98712
4.02008
4.05077
4.07912
4.1051
4.12868
4.14982
4.1685
4.18471
4.19842
4.20964
4.21836
4.22459
4.22834
4.22963
4.22848
4.22485
4.2188
4.21042
4.19977
4.1869
4.17189
4.15479
4.1357
4.11469
4.09185
4.06727
4.04104
4.01325
3.98397
3.95329
3.92129
3.88809
3.85382
3.81862
3.78254
3.74564
3.70793
3.66946
3.63031
3.59055
3.55026
3.50953
3.46846
3.42714
3.38569
3.3442
3.30283
3.26173
3.22108
3.18115
3.1422
3.10464
3.06797
3.02832
0.0147497
0.0159338
0.0192211
0.0237491
0.0288315
0.0340092
0.039058
0.0439079
0.0485637
0.0530597
0.0574382
0.0617417
0.0660099
0.0702788
0.0745808
0.0789451
0.0833976
0.0879616
0.0926581
0.0975061
0.102523
0.107725
0.113128
0.118746
0.124593
0.130683
0.137031
0.143649
0.150553
0.157757
0.165277
0.173128
0.181327
0.189891
0.198838
0.208188
0.217962
0.22818
0.238865
0.25004
0.261731
0.273963
0.286764
0.300162
0.314187
0.32887
0.344241
0.360335
0.377185
0.394825
0.41329
0.432617
0.45284
0.473997
0.496124
0.519257
0.543432
0.568685
0.595051
0.622563
0.651256
0.68116
0.712306
0.744723
0.778437
0.813473
0.849854
0.887599
0.926726
0.967249
1.00918
1.05253
1.09729
1.14348
1.19109
1.24011
1.29053
1.34234
1.39552
1.45004
1.50588
1.56302
1.6214
1.681
1.74176
1.80364
1.86658
1.93053
1.99543
2.06121
2.12779
2.19512
2.26311
2.33167
2.40073
2.47019
2.53998
2.60999
2.68014
2.75032
2.82043
2.89038
2.96006
3.02937
3.09821
3.16646
3.23402
3.3008
3.36667
3.43155
3.49532
3.55788
3.61914
3.67899
3.73734
3.79409
3.84916
3.90245
3.95388
4.00336
4.05081
4.09616
4.13933
4.18026
4.21887
4.25511
4.28892
4.32025
4.34906
4.3753
4.39894
4.41996
4.43834
4.45405
4.46709
4.47746
4.48515
4.4902
4.49261
4.4924
4.48961
4.48411
4.47609
4.46562
4.45275
4.43753
4.42006
4.4004
4.37863
4.35486
4.32917
4.30165
4.27241
4.24153
4.2091
4.1752
4.13992
4.10334
4.06562
4.02687
3.9872
3.94666
3.90532
3.86323
3.82048
3.77715
3.73331
3.68908
3.64455
3.59982
3.555
3.51023
3.46564
3.4214
3.37771
3.3348
3.29294
3.25251
3.213
3.17114
0.0192168
0.0190005
0.0219083
0.0266234
0.0321387
0.0377927
0.0432727
0.0484874
0.0534456
0.0581928
0.0627829
0.0672683
0.0716971
0.0761125
0.0805527
0.0850516
0.0896391
0.0943415
0.0991822
0.104182
0.109361
0.114735
0.120321
0.126134
0.13219
0.138503
0.145088
0.151959
0.159133
0.166625
0.174451
0.182629
0.191176
0.200113
0.209458
0.219233
0.229461
0.240165
0.251369
0.2631
0.275386
0.288253
0.301733
0.315857
0.330656
0.346165
0.362417
0.379449
0.397296
0.415996
0.435586
0.456106
0.477593
0.500087
0.523626
0.54825
0.573997
0.600905
0.629011
0.658353
0.688965
0.720882
0.754135
0.788756
0.824773
0.862213
0.901099
0.941453
0.983292
1.02663
1.07149
1.11786
1.16576
1.21519
1.26613
1.3186
1.37256
1.42801
1.48493
1.54328
1.60304
1.66417
1.72663
1.79038
1.85536
1.92151
1.98879
2.05712
2.12643
2.19666
2.26773
2.33955
2.41204
2.48511
2.55866
2.6326
2.70684
2.78127
2.85579
2.93029
3.00467
3.07881
3.1526
3.22594
3.2987
3.37078
3.44206
3.51242
3.58177
3.64997
3.71693
3.78253
3.84668
3.90925
3.97016
4.0293
4.08659
4.14192
4.19521
4.24637
4.29531
4.34197
4.38626
4.42812
4.46748
4.50428
4.53847
4.57
4.59881
4.62489
4.64819
4.66869
4.68638
4.70123
4.71326
4.72245
4.72883
4.73241
4.73322
4.73133
4.72659
4.71908
4.70895
4.69625
4.68104
4.6634
4.64341
4.62114
4.5967
4.57018
4.54167
4.51128
4.47911
4.44525
4.4098
4.37283
4.33443
4.29471
4.25378
4.21178
4.16882
4.12498
4.08035
4.03499
3.989
3.94245
3.89544
3.84808
3.80046
3.75269
3.7049
3.65721
3.60977
3.56274
3.51633
3.47078
3.4263
3.38326
3.34118
3.29731
0.0249759
0.0225883
0.0247076
0.0294032
0.0352518
0.0413232
0.0471814
0.0527037
0.0579032
0.0628374
0.0675737
0.0721761
0.0767021
0.0812023
0.0857212
0.0902973
0.0949643
0.0997516
0.104685
0.109786
0.115077
0.120574
0.126296
0.132258
0.138476
0.144966
0.151743
0.158823
0.166222
0.173958
0.182048
0.190511
0.199366
0.208635
0.218339
0.228502
0.239147
0.250301
0.26199
0.274244
0.287091
0.300563
0.314693
0.329514
0.345061
0.36137
0.378479
0.396425
0.415249
0.43499
0.455689
0.477386
0.500125
0.523946
0.548891
0.575003
0.602323
0.63089
0.660746
0.69193
0.724479
0.758429
0.793815
0.830669
0.869021
0.908899
0.950328
0.993329
1.03792
1.08412
1.13194
1.18137
1.23244
1.28513
1.33945
1.39537
1.45289
1.51197
1.57261
1.63476
1.69839
1.76346
1.82992
1.89772
1.96681
2.03711
2.10856
2.1811
2.25463
2.32909
2.40439
2.48044
2.55714
2.6344
2.71211
2.79017
2.86847
2.94691
3.02538
3.10375
3.18191
3.25975
3.33715
3.41398
3.49012
3.56546
3.63988
3.71325
3.78545
3.85638
3.9259
3.99392
4.06031
4.12498
4.18781
4.2487
4.30756
4.36429
4.4188
4.47101
4.52083
4.56818
4.61299
4.65519
4.69471
4.73151
4.76552
4.79671
4.82502
4.85044
4.87292
4.89246
4.90903
4.92263
4.93326
4.94094
4.94569
4.94751
4.94653
4.94263
4.93573
4.92606
4.91368
4.89864
4.88103
4.86091
4.83839
4.81354
4.78646
4.75726
4.72603
4.6929
4.65795
4.62129
4.58302
4.54321
4.50197
4.45939
4.41559
4.3707
4.32484
4.27811
4.2306
4.1824
4.13359
4.08428
4.03455
3.98451
3.93426
3.88391
3.8336
3.78344
3.73359
3.68422
3.63551
3.58769
3.54098
3.4957
3.4514
3.40587
0.0321571
0.0266977
0.0275734
0.0320198
0.0380868
0.0445061
0.0506815
0.056448
0.0618223
0.066876
0.0716917
0.0763463
0.0809077
0.0854345
0.0899774
0.0945795
0.0992779
0.104104
0.109087
0.114248
0.11961
0.125192
0.131011
0.137085
0.143429
0.15006
0.156993
0.164247
0.171839
0.179786
0.188108
0.196826
0.20596
0.215534
0.225571
0.236097
0.247139
0.258725
0.270883
0.283647
0.297047
0.311117
0.325894
0.341414
0.357714
0.374834
0.392814
0.411695
0.431521
0.452334
0.474178
0.497098
0.521139
0.546346
0.572763
0.600437
0.62941
0.659726
0.691428
0.724557
0.759152
0.795252
0.832891
0.872104
0.91292
0.955367
0.999469
1.04525
1.09272
1.1419
1.19279
1.2454
1.29973
1.35578
1.41352
1.47296
1.53406
1.5968
1.66115
1.72706
1.79451
1.86343
1.93378
2.00549
2.07851
2.15275
2.22814
2.30461
2.38206
2.46042
2.53959
2.61946
2.69994
2.78092
2.86229
2.94394
3.02576
3.10763
3.18943
3.27104
3.35233
3.43319
3.51349
3.59309
3.67189
3.74974
3.82652
3.90212
3.97641
4.04926
4.12055
4.19018
4.25803
4.32397
4.38792
4.44977
4.50941
4.56676
4.62172
4.67422
4.72415
4.77146
4.81606
4.8579
4.89692
4.93305
4.96625
4.99649
5.02372
5.04791
5.06905
5.08712
5.10211
5.11402
5.12286
5.12866
5.13144
5.13125
5.12822
5.12196
5.1128
5.10081
5.08606
5.06862
5.04856
5.02597
5.00095
4.97358
4.94397
4.91223
4.87846
4.84277
4.80528
4.76608
4.72528
4.68296
4.63922
4.59417
4.54791
4.50057
4.45227
4.40313
4.35324
4.30271
4.25161
4.20006
4.14814
4.09596
4.04362
3.99124
3.93894
3.88685
3.83512
3.78391
3.7334
3.68381
3.63533
3.58826
3.54218
3.49547
0.0409705
0.0313735
0.0304983
0.0344313
0.0405791
0.0472607
0.0536809
0.059619
0.065095
0.0701972
0.0750247
0.0796685
0.0842074
0.0887083
0.0932276
0.0978125
0.102503
0.107333
0.11233
0.11752
0.122924
0.128561
0.13445
0.140608
0.147051
0.153798
0.160864
0.168268
0.17603
0.184169
0.192706
0.201664
0.211065
0.220935
0.231301
0.24219
0.253633
0.26566
0.278304
0.291599
0.305581
0.320288
0.335758
0.35203
0.369148
0.387152
0.406087
0.425998
0.446932
0.468935
0.492055
0.51634
0.541839
0.5686
0.596671
0.626099
0.656932
0.689214
0.72299
0.758301
0.795187
0.833687
0.873834
0.915662
0.959198
1.00447
1.05149
1.10029
1.15087
1.20324
1.2574
1.31337
1.37112
1.43064
1.49192
1.55494
1.61966
1.68605
1.75407
1.82368
1.89482
1.96744
2.04147
2.11685
2.1935
2.27135
2.3503
2.43028
2.51119
2.59293
2.6754
2.75851
2.84213
2.92617
3.01049
3.09499
3.17955
3.26404
3.34834
3.43233
3.51587
3.59884
3.68111
3.76255
3.84303
3.92242
4.0006
4.07743
4.1528
4.22658
4.29865
4.3689
4.4372
4.50345
4.56754
4.62938
4.68886
4.74589
4.80038
4.85226
4.90144
4.94785
4.99142
5.03209
5.06982
5.10454
5.13622
5.16482
5.19031
5.21268
5.2319
5.24797
5.26088
5.27064
5.27727
5.28082
5.28129
5.27894
5.27333
5.26464
5.25306
5.23864
5.22145
5.20157
5.17908
5.15407
5.12664
5.09689
5.06492
5.03085
4.99478
4.95683
4.9171
4.87571
4.83276
4.78834
4.74255
4.69548
4.64726
4.598
4.54783
4.49685
4.44517
4.3929
4.34013
4.28695
4.23346
4.17977
4.12597
4.07218
4.01853
3.96512
3.91212
3.85967
3.80795
3.75716
3.70746
3.65915
3.61182
3.56449
0.0517189
0.0367007
0.0334995
0.0366142
0.0426783
0.0495161
0.0560927
0.0621182
0.0676155
0.0726921
0.0774643
0.0820381
0.0865032
0.0909337
0.0953911
0.0999259
0.10458
0.109387
0.114378
0.119576
0.125003
0.130679
0.136623
0.14285
0.14938
0.15623
0.163419
0.170968
0.178896
0.187227
0.195984
0.205191
0.214875
0.225065
0.235791
0.247083
0.258976
0.271506
0.284708
0.298622
0.313288
0.328747
0.345043
0.362219
0.380322
0.399398
0.419494
0.44066
0.462947
0.486406
0.511087
0.537044
0.564328
0.59299
0.623079
0.654646
0.687736
0.722396
0.758667
0.79659
0.836202
0.877537
0.920626
0.965495
1.01217
1.06066
1.11098
1.16315
1.21717
1.27304
1.33074
1.39027
1.45162
1.51476
1.57966
1.64628
1.7146
1.78457
1.85613
1.92923
2.00381
2.0798
2.15714
2.23574
2.31554
2.39643
2.47833
2.56115
2.64478
2.72914
2.8141
2.89957
2.98542
3.07155
3.15784
3.24416
3.33039
3.41641
3.5021
3.58732
3.67194
3.75584
3.83888
3.92095
4.0019
4.08161
4.15995
4.2368
4.31203
4.38553
4.45717
4.52683
4.59441
4.65979
4.72288
4.78357
4.84178
4.89741
4.95039
5.00062
5.04805
5.0926
5.13421
5.17282
5.20841
5.24091
5.27028
5.29652
5.31958
5.33947
5.35617
5.36968
5.38
5.38715
5.39116
5.39209
5.39014
5.38501
5.37672
5.36542
5.35118
5.33415
5.31439
5.292
5.26707
5.23968
5.20995
5.17797
5.14385
5.1077
5.06963
5.02976
4.9882
4.94506
4.90043
4.85442
4.80713
4.75865
4.70909
4.65857
4.60719
4.55508
4.50234
4.44907
4.39537
4.34132
4.28703
4.23259
4.1781
4.12367
4.06942
4.01546
3.96193
3.90897
3.85675
3.80545
3.75521
3.70632
3.65836
3.61114
0.0652926
0.0430297
0.0367133
0.0386167
0.0443906
0.0512533
0.0578786
0.0638926
0.0693207
0.0742924
0.0789427
0.0833919
0.0877388
0.0920626
0.0964296
0.100892
0.105493
0.110266
0.115241
0.120442
0.125891
0.131608
0.137611
0.143918
0.150545
0.157513
0.164845
0.172563
0.180692
0.189259
0.198289
0.207813
0.217861
0.228466
0.239665
0.251494
0.263992
0.277202
0.291167
0.305932
0.321544
0.338051
0.355502
0.373946
0.393433
0.414014
0.435741
0.458668
0.482849
0.508338
0.535191
0.563462
0.593204
0.624467
0.657302
0.691753
0.727863
0.765672
0.805216
0.846527
0.889633
0.934558
0.98132
1.02993
1.08041
1.13275
1.18696
1.24303
1.30095
1.36071
1.42228
1.48565
1.55077
1.61762
1.68616
1.75633
1.8281
1.9014
1.97617
2.05236
2.12988
2.20868
2.28867
2.36976
2.45188
2.53494
2.61884
2.70348
2.78877
2.87459
2.96085
3.04744
3.13423
3.22113
3.308
3.39473
3.4812
3.56728
3.65286
3.73781
3.82199
3.90528
3.98756
4.06871
4.14859
4.22708
4.30406
4.37938
4.45297
4.52468
4.59441
4.66204
4.72747
4.79058
4.85127
4.90948
4.96511
5.01807
5.06828
5.11568
5.16019
5.20177
5.24034
5.27582
5.30805
5.33713
5.36307
5.38587
5.40548
5.42194
5.43522
5.44534
5.4523
5.45614
5.4569
5.45488
5.44964
5.44134
5.43012
5.41614
5.39943
5.38003
5.35801
5.33345
5.30645
5.27711
5.24552
5.21179
5.17602
5.13834
5.09884
5.05765
5.01487
4.9706
4.92496
4.87804
4.82994
4.78075
4.73058
4.67953
4.62771
4.57523
4.52219
4.4687
4.41484
4.3607
4.30639
4.25198
4.19758
4.14328
4.0892
4.03544
3.98213
3.92941
3.87742
3.82632
3.77625
3.7275