/*--------------------------------*- C++ -*----------------------------------*\
| =========                 |                                                 |
| \\      /  F ield         | OpenFOAM: The Open Source CFD Toolbox           |
|  \\    /   O peration     | Version:  2412                                  |
|   \\  /    A nd           | Website:  www.openfoam.com                      |
|    \\/     M anipulation  |                                                 |
\*---------------------------------------------------------------------------*/
FoamFile
{
    version     2.0;
    format      ascii;
    arch        "LSB;label=32;scalar=64";
    class       volScalarField;
    location    "300";
    object      nut;
}
// * * * * * * * * * * * * * * * * * * * * * * * * * * * * * * * * * * * * * //

dimensions      [0 2 -1 0 0 0 0];

internalField   nonuniform List<scalar> 
12225
(
0.00014531
0.000151317
0.000137013
0.000119551
0.000108947
0.000102195
9.71757e-05
9.32566e-05
9.02281e-05
8.78856e-05
8.60557e-05
8.46264e-05
8.35327e-05
8.27218e-05
8.22128e-05
8.19086e-05
8.20266e-05
8.07016e-05
4.36939e-05
7.95062e-05
8.38778e-05
8.59983e-05
8.08107e-05
7.60009e-05
7.20187e-05
6.88149e-05
6.62126e-05
6.40827e-05
6.23261e-05
6.08649e-05
5.96507e-05
5.86044e-05
5.77782e-05
5.68489e-05
5.68564e-05
5.35777e-05
1.35942e-05
2.92442e-05
4.28434e-05
4.804e-05
5.44215e-05
5.74804e-05
5.8461e-05
5.85968e-05
5.82818e-05
5.77212e-05
5.70422e-05
5.63267e-05
5.56347e-05
5.48771e-05
5.43262e-05
5.32604e-05
5.32908e-05
5.09286e-05
0.000127323
1.47916e-05
2.0136e-05
2.4965e-05
2.96391e-05
3.40143e-05
3.78643e-05
4.0932e-05
4.34162e-05
4.53322e-05
4.68507e-05
4.80914e-05
4.90447e-05
4.96775e-05
5.0285e-05
5.03958e-05
5.07793e-05
5.05656e-05
0.000323547
4.78722e-05
2.51617e-05
2.17834e-05
2.16883e-05
2.30579e-05
2.48603e-05
2.6915e-05
2.89747e-05
3.09737e-05
3.28201e-05
3.46246e-05
3.61798e-05
3.77325e-05
3.89531e-05
4.01497e-05
4.13244e-05
4.1809e-05
0.00239764
0.000232651
0.00010202
5.89121e-05
4.34781e-05
3.66866e-05
3.32241e-05
3.15854e-05
3.0776e-05
3.04765e-05
3.0835e-05
3.12142e-05
3.18003e-05
3.25772e-05
3.32485e-05
3.41594e-05
3.51399e-05
3.55785e-05
0.00385136
0.000628493
0.000374763
0.000207116
0.000138414
0.000104206
8.50243e-05
7.32355e-05
6.59801e-05
6.07477e-05
5.74498e-05
5.46635e-05
5.27925e-05
5.121e-05
5.04378e-05
4.94603e-05
4.98406e-05
4.86981e-05
0.00107718
0.000886295
0.000726228
0.000507351
0.000366882
0.000280975
0.000227835
0.000192163
0.000168211
0.000149815
0.000137181
0.000126871
0.000119804
0.000113375
0.000109644
0.000105299
0.000104312
0.00010021
0.000907631
0.000890691
0.00086666
0.000762335
0.000641192
0.000539165
0.000460814
0.000400638
0.000356694
0.000321356
0.000295421
0.000273304
0.000257617
0.000242899
0.000233587
0.000223205
0.000218697
0.00020974
0.000867323
0.000873257
0.000878559
0.000856831
0.000806974
0.000744027
0.000682871
0.000626472
0.000578689
0.000536121
0.000502353
0.000471444
0.000448435
0.000425805
0.000410865
0.000393677
0.000385103
0.000370978
0.000856686
0.000862327
0.000866695
0.00086976
0.000860058
0.000838286
0.000811437
0.000779172
0.000747994
0.00071619
0.000688054
0.000659737
0.000637214
0.000613589
0.000597
0.000577261
0.000566594
0.000548492
0.000852876
0.00085748
0.000860299
0.00086405
0.000865992
0.000861661
0.000853981
0.000841622
0.000827368
0.00081029
0.000793897
0.000775398
0.000759435
0.000741462
0.000728074
0.000711571
0.000701782
0.0006858
0.000852086
0.000853821
0.000856703
0.000859692
0.000861922
0.000863689
0.000863681
0.000861739
0.000858343
0.000852457
0.000845888
0.000837618
0.000829867
0.000820029
0.000812078
0.000801816
0.000794992
0.000784082
0.000851998
0.000852447
0.000853883
0.000855839
0.000857995
0.000860097
0.000861697
0.000863152
0.000863781
0.000863822
0.000862951
0.000861459
0.00085961
0.000856577
0.000853737
0.000849934
0.000846643
0.000842169
0.000851906
0.00085194
0.000852538
0.000853612
0.000854932
0.000856385
0.000857861
0.000859323
0.000860708
0.00086184
0.000862841
0.00086344
0.000863955
0.000863963
0.000863966
0.000863408
0.000863034
0.000861978
0.000851831
0.000851655
0.000851852
0.000852396
0.000853156
0.000854022
0.000854965
0.000855912
0.000856876
0.000857762
0.000858632
0.000859373
0.00086009
0.000860645
0.000861177
0.000861534
0.000861861
0.000862071
0.000851789
0.000851492
0.000851474
0.000851729
0.000852165
0.000852685
0.000853257
0.000853829
0.000854398
0.000854923
0.000855423
0.000855866
0.00085628
0.000856636
0.000856961
0.000857241
0.000857463
0.000857709
0.000851774
0.000851429
0.000851313
0.000851431
0.000851704
0.000852051
0.000852431
0.000852808
0.000853165
0.000853487
0.00085377
0.000854013
0.000854218
0.000854389
0.000854525
0.000854639
0.000854716
0.000854791
0.000851787
0.000851467
0.000851367
0.000851493
0.00085176
0.000852096
0.000852451
0.000852803
0.000853123
0.000853408
0.000853643
0.00085384
0.000853986
0.000854103
0.000854171
0.000854221
0.000854226
0.000854221
0.00085183
0.000851645
0.000851716
0.000852056
0.000852538
0.000853086
0.00085362
0.000854134
0.000854549
0.000854894
0.000855095
0.000855216
0.000855178
0.000855075
0.000854792
0.000854489
0.000853965
0.000853517
0.000851831
0.000852053
0.000852468
0.00085323
0.000854108
0.000854841
0.00085527
0.000855438
0.00085497
0.000854138
0.000852631
0.000850862
0.000848503
0.0008459
0.000842761
0.00083949
0.000835787
0.000832358
0.000851365
0.000853757
0.000853786
0.000854554
0.000854155
0.000852162
0.000848547
0.000843105
0.000834391
0.000824701
0.000813032
0.000801352
0.000788135
0.000775935
0.00076238
0.000750733
0.00073731
0.00072695
0.000850861
0.000860499
0.000848358
0.000841959
0.000826265
0.000807192
0.000776823
0.000743094
0.000707034
0.000673726
0.000640846
0.00061245
0.000584464
0.000561346
0.000537813
0.000519489
0.000499533
0.000485394
0.000863417
0.000866126
0.000799704
0.000745605
0.000664485
0.000584358
0.000510138
0.000450009
0.00040059
0.000362432
0.000330591
0.00030575
0.00028341
0.000266275
0.000249922
0.000238081
0.000225462
0.000217201
0.00100324
0.000847119
0.000555256
0.00039597
0.000286669
0.000221005
0.000178046
0.000150251
0.000130646
0.000116814
0.000106153
9.82328e-05
9.19354e-05
8.70825e-05
8.29301e-05
7.95755e-05
7.65791e-05
7.43097e-05
0.00172652
0.000342
0.000160693
9.03079e-05
6.46609e-05
5.22984e-05
4.53196e-05
4.12573e-05
3.8759e-05
3.73455e-05
3.63232e-05
3.59048e-05
3.56497e-05
3.58127e-05
3.60464e-05
3.64179e-05
3.69462e-05
3.75643e-05
0.000348568
4.95783e-05
2.95715e-05
2.53652e-05
2.52898e-05
2.68779e-05
2.89577e-05
3.1144e-05
3.36837e-05
3.61204e-05
3.86623e-05
4.09997e-05
4.34794e-05
4.56191e-05
4.80379e-05
5.00473e-05
5.22857e-05
5.42409e-05
0.000292047
1.998e-05
3.07647e-05
3.99118e-05
4.70458e-05
5.27688e-05
5.80306e-05
6.23676e-05
6.56488e-05
6.85011e-05
7.08768e-05
7.27566e-05
7.43611e-05
7.56466e-05
7.67757e-05
7.76697e-05
7.84828e-05
7.91203e-05
3.30855e-05
7.23543e-05
9.41101e-05
9.87327e-05
0.000102891
0.00010258
0.000100775
9.84251e-05
9.59347e-05
9.35337e-05
9.13357e-05
8.93488e-05
8.7592e-05
8.60268e-05
8.46553e-05
8.34243e-05
8.23476e-05
8.13645e-05
0.000153722
0.000186738
0.000180006
0.000163417
0.000150237
0.000141223
0.000134457
0.000128902
0.000124236
0.000120305
0.000116971
0.000114116
0.000111649
0.000109499
0.000107608
0.000105933
0.00010443
0.000103101
3.62147e-06
8.07003e-06
8.519e-06
9.07077e-06
9.69071e-06
1.03425e-05
1.09953e-05
1.16255e-05
1.22172e-05
1.27603e-05
1.32504e-05
1.36868e-05
1.4072e-05
1.44107e-05
1.47089e-05
1.49737e-05
1.52126e-05
1.54344e-05
1.56492e-05
1.58705e-05
1.61191e-05
1.64308e-05
1.68719e-05
1.74354e-05
1.80669e-05
1.87387e-05
1.94369e-05
2.01551e-05
2.08904e-05
2.16423e-05
2.24109e-05
2.31972e-05
2.40023e-05
2.48276e-05
2.56745e-05
2.65445e-05
2.74389e-05
2.83588e-05
2.93055e-05
3.02802e-05
3.12842e-05
3.23187e-05
3.33849e-05
3.44842e-05
3.56176e-05
3.67864e-05
3.79917e-05
3.92346e-05
4.05162e-05
4.18372e-05
4.31986e-05
4.46006e-05
4.60436e-05
4.75275e-05
4.9052e-05
5.06166e-05
5.22226e-05
5.38699e-05
5.55585e-05
5.72876e-05
5.90568e-05
6.08646e-05
6.271e-05
6.45914e-05
6.65074e-05
6.84557e-05
7.04348e-05
7.24417e-05
7.44746e-05
7.65304e-05
7.86068e-05
8.07004e-05
8.28089e-05
8.49287e-05
8.70572e-05
8.91906e-05
9.1326e-05
9.34589e-05
9.55866e-05
9.77051e-05
9.98119e-05
0.000101903
0.000103975
0.000106026
0.000108052
0.00011005
0.000112017
0.000113949
0.000115844
0.000117699
0.000119514
0.000121286
0.000123012
0.000124688
0.000126314
0.000127886
0.000129403
0.000130863
0.000132265
0.000133606
0.000134885
0.000136101
0.000137252
0.000138338
0.000139354
0.000140301
0.000141177
0.000141982
0.000142713
0.000143371
0.000143954
0.000144463
0.000144894
0.000145245
0.000145512
0.000145694
0.000145795
0.000145826
0.000145762
0.000145631
0.00014544
0.000145166
0.000144819
0.000144398
0.000143903
0.000143335
0.000142691
0.000141976
0.00014119
0.000140335
0.00013941
0.000138419
0.000137362
0.000136241
0.000135057
0.000133813
0.00013251
0.000131149
0.000129734
0.000128266
0.000126746
0.000125179
0.000123567
0.000121915
0.000120224
0.000118498
0.00011674
0.000114953
0.000113142
0.000111309
0.000109459
0.000107597
0.000105725
0.00010385
0.000101977
0.000100114
9.82728e-05
9.66172e-05
9.6499e-05
9.73929e-05
9.83326e-05
9.92404e-05
0.000100118
0.000100969
0.000101793
0.000102591
0.000103362
0.000104106
0.000104821
0.000105505
0.000106157
0.000106773
0.000107347
0.000107873
0.000108339
0.000108721
0.000109001
0.000109013
0.000108943
0.000106651
3.86604e-06
5.54784e-06
7.82058e-06
1.04528e-05
1.31739e-05
1.58048e-05
1.82775e-05
2.05898e-05
2.27684e-05
2.48495e-05
2.68699e-05
2.88617e-05
3.08475e-05
3.2851e-05
3.48898e-05
3.69755e-05
3.91112e-05
4.12871e-05
4.34819e-05
4.56592e-05
4.77661e-05
4.97361e-05
5.15092e-05
5.30954e-05
5.45541e-05
5.59399e-05
5.72909e-05
5.86307e-05
5.99728e-05
6.13249e-05
6.26907e-05
6.40722e-05
6.54705e-05
6.68866e-05
6.83225e-05
6.97841e-05
7.12692e-05
7.27754e-05
7.43026e-05
7.58513e-05
7.74223e-05
7.90167e-05
8.06359e-05
8.2281e-05
8.39536e-05
8.5655e-05
8.73862e-05
8.91488e-05
9.09451e-05
9.27776e-05
9.46487e-05
9.65606e-05
9.8514e-05
0.000100506
0.000102523
0.000104534
0.000106577
0.00010866
0.000110784
0.000112953
0.000115167
0.00011743
0.000119742
0.000122107
0.000124526
0.000127001
0.000129535
0.000132129
0.000134787
0.00013751
0.000140301
0.000143163
0.000146098
0.000149111
0.000152205
0.000155385
0.000158658
0.000162013
0.000165453
0.00016898
0.000172596
0.000176303
0.000180103
0.000184001
0.000188
0.000192103
0.000196311
0.000200628
0.000205058
0.000209601
0.000214259
0.000219035
0.00022393
0.000228945
0.000234084
0.000239348
0.000244739
0.000250257
0.000255904
0.000261681
0.000267588
0.000273626
0.000279795
0.000286095
0.000292525
0.000299088
0.000305781
0.000312606
0.000319562
0.000326653
0.000333881
0.000341269
0.000348886
0.00035659
0.000364335
0.000371976
0.00037959
0.000387342
0.00039521
0.000403149
0.000411188
0.000419349
0.000427606
0.000435969
0.000444442
0.000453041
0.000461782
0.000470626
0.000479577
0.000488633
0.000497794
0.000507065
0.000516445
0.000525918
0.000535494
0.000545175
0.000554946
0.000564813
0.000574768
0.000584831
0.000594895
0.000605071
0.000615295
0.000625622
0.000636007
0.000646445
0.000656931
0.000667459
0.00067802
0.000688602
0.00069919
0.000709762
0.000720287
0.000730723
0.000740998
0.00075098
0.000760269
0.000766572
0.000759756
0.000744944
0.000727412
0.000709639
0.00069191
0.000674338
0.000656981
0.000639874
0.00062304
0.000606512
0.000590312
0.000574459
0.000558969
0.00054386
0.000529149
0.000514857
0.000501002
0.000487649
0.000474693
0.000462861
0.000450619
0.000426508
4.35116e-06
6.00458e-06
8.92919e-06
1.32621e-05
1.87936e-05
2.50531e-05
3.1556e-05
3.79499e-05
4.40794e-05
4.99078e-05
5.54667e-05
6.08162e-05
6.6025e-05
7.11499e-05
7.62291e-05
8.12779e-05
8.62906e-05
9.12438e-05
9.60939e-05
0.000100781
0.000105238
0.000109406
0.000113256
0.000116815
0.00012015
0.000123334
0.000126429
0.00012948
0.000132515
0.000135552
0.000138603
0.000141672
0.000144762
0.000147875
0.000151007
0.000154152
0.000157314
0.000160499
0.000163708
0.000166944
0.000170209
0.000173506
0.000176838
0.000180209
0.000183625
0.000187089
0.000190601
0.000194164
0.000197785
0.000201472
0.000205235
0.000209085
0.000213035
0.000217106
0.000221323
0.00022573
0.00023028
0.000234973
0.000239823
0.00024484
0.000250036
0.000255424
0.000261016
0.000266825
0.000272863
0.000279142
0.000285675
0.000292473
0.00029955
0.000306917
0.000314584
0.000322563
0.000330864
0.000339495
0.000348464
0.000357795
0.0003675
0.000377568
0.000388004
0.000398812
0.000409996
0.000421558
0.0004335
0.000445826
0.000458535
0.000471627
0.000485098
0.000498947
0.000513168
0.000527757
0.000542708
0.000558013
0.000573664
0.000589651
0.000605965
0.000622596
0.000639532
0.00065676
0.000674268
0.000692042
0.000710068
0.00072833
0.000746812
0.000765497
0.000784366
0.0008034
0.00082258
0.00084189
0.000861311
0.00088083
0.000900401
0.000919907
0.00093916
0.000958404
0.00097756
0.000996534
0.0010154
0.00103427
0.00105309
0.0010718
0.00109044
0.00110901
0.00112748
0.00114584
0.00116408
0.0011822
0.00120018
0.00121799
0.00123562
0.00125306
0.00127028
0.00128732
0.00130419
0.00132073
0.00133705
0.00135316
0.00136899
0.00138456
0.00139982
0.0014148
0.00142946
0.00144377
0.00145764
0.00147132
0.00148464
0.0014976
0.0015102
0.00152243
0.00153428
0.00154575
0.00155681
0.00156745
0.00157762
0.00158728
0.00159632
0.00160451
0.00161118
0.00161358
0.00160365
0.00158441
0.00156026
0.00153436
0.0015076
0.00148035
0.0014528
0.00142506
0.00139717
0.00136927
0.0013414
0.00131362
0.00128598
0.00125853
0.0012313
0.00120435
0.0011777
0.0011514
0.00112527
0.0011
0.00107381
0.00102415
4.90939e-06
6.8581e-06
1.07168e-05
1.70561e-05
2.59585e-05
3.68475e-05
4.87738e-05
6.08514e-05
7.24976e-05
8.34507e-05
9.36605e-05
0.00010319
0.000112148
0.000120641
0.000128761
0.00013657
0.000144104
0.000151373
0.000158369
0.000165073
0.00017146
0.000177528
0.000183296
0.000188803
0.000194106
0.000199266
0.000204337
0.000209361
0.00021437
0.000219384
0.000224415
0.000229473
0.000234567
0.000239702
0.000244881
0.000250108
0.000255388
0.000260725
0.000266127
0.000271599
0.000277149
0.000282784
0.000288515
0.000294355
0.000300323
0.000306448
0.00031278
0.000319305
0.000326016
0.000332926
0.000340051
0.000347412
0.00035503
0.000362939
0.000371168
0.000379734
0.00038863
0.000397866
0.000407476
0.000417482
0.000427909
0.000438778
0.000450111
0.000461928
0.00047425
0.000487095
0.000500481
0.000514423
0.000528938
0.000544037
0.000559731
0.00057603
0.000592941
0.000610468
0.000628615
0.000647387
0.000666781
0.000686789
0.000707403
0.000728614
0.000750411
0.000772782
0.000795712
0.000819186
0.000843185
0.000867689
0.000892677
0.000918126
0.000944013
0.000970314
0.000997007
0.00102406
0.00105145
0.00107915
0.00110713
0.00113536
0.00116381
0.00119246
0.00122127
0.00125021
0.00127926
0.00130838
0.00133755
0.00136672
0.00139587
0.00142496
0.00145395
0.0014828
0.00151148
0.0015399
0.00156799
0.00159576
0.00162317
0.00165027
0.00167701
0.00170336
0.00172935
0.00175501
0.00178031
0.00180521
0.00182971
0.0018538
0.00187745
0.00190065
0.00192338
0.00194563
0.00196738
0.00198862
0.00200938
0.00202959
0.00204924
0.00206833
0.00208686
0.00210473
0.00212198
0.00213877
0.00215487
0.00217039
0.00218521
0.00219941
0.00221296
0.00222572
0.00223782
0.00224938
0.00226025
0.00227046
0.00228
0.00228889
0.00229712
0.00230471
0.00231164
0.00231791
0.00232348
0.00232833
0.00233234
0.00233529
0.0023365
0.0023339
0.00232294
0.0023044
0.00228092
0.0022548
0.00222708
0.00219828
0.00216868
0.00213846
0.00210792
0.00207698
0.00204568
0.00201408
0.00198225
0.00195024
0.00191809
0.00188585
0.00185354
0.00182114
0.00178849
0.00175584
0.00172075
0.00166009
5.41235e-06
7.84232e-06
1.29226e-05
2.16621e-05
3.4381e-05
5.02989e-05
6.79341e-05
8.58311e-05
0.000103007
0.000118983
0.000133632
0.000147023
0.000159307
0.000170654
0.000181223
0.000191149
0.000200535
0.000209461
0.000217987
0.00022616
0.000234024
0.000241609
0.000248953
0.000256101
0.000263101
0.000270003
0.000276851
0.000283681
0.000290524
0.000297404
0.000304341
0.000311348
0.000318436
0.000325613
0.00033289
0.000340277
0.000347785
0.000355428
0.000363218
0.000371169
0.000379297
0.000387618
0.000396148
0.000404904
0.000413904
0.000423157
0.000432654
0.000442436
0.000452544
0.000463004
0.000473839
0.000485068
0.000496694
0.000508782
0.000521394
0.000534594
0.000548485
0.000563001
0.000578121
0.000593873
0.000610286
0.000627383
0.000645186
0.000663714
0.000682983
0.000703007
0.000723798
0.000745365
0.000767712
0.000790842
0.000814756
0.000839449
0.000864915
0.000891146
0.000918129
0.000945849
0.000974289
0.00100343
0.00103324
0.0010637
0.00109479
0.00112647
0.00115871
0.00119149
0.00122477
0.00125851
0.00129269
0.00132727
0.00136221
0.00139747
0.00143303
0.00146884
0.00150487
0.00154108
0.00157743
0.00161389
0.00165042
0.00168698
0.00172354
0.00176006
0.0017965
0.00183283
0.001869
0.00190499
0.00194075
0.00197623
0.00201137
0.00204613
0.00208047
0.00211436
0.00214777
0.00218069
0.00221309
0.00224497
0.00227629
0.00230705
0.00233725
0.00236686
0.00239588
0.00242428
0.00245203
0.00247912
0.00250553
0.00253124
0.00255622
0.00258047
0.00260396
0.00262667
0.00264859
0.00266969
0.00268997
0.00270942
0.00272803
0.00274576
0.00276262
0.00277865
0.00279385
0.00280831
0.00282172
0.00283429
0.00284594
0.00285656
0.00286643
0.00287542
0.00288354
0.00289079
0.00289719
0.00290276
0.00290751
0.00291145
0.00291458
0.00291691
0.00291843
0.00291912
0.00291889
0.00291755
0.0029146
0.00290871
0.00289753
0.00288093
0.00286014
0.00283654
0.00281101
0.00278404
0.00275592
0.00272685
0.00269693
0.00266631
0.00263507
0.00260327
0.00257098
0.00253826
0.00250516
0.00247172
0.00243796
0.00240393
0.00236954
0.00233459
0.00229677
0.00223553
5.79579e-06
8.909e-06
1.55451e-05
2.71278e-05
4.40317e-05
6.50424e-05
8.80804e-05
0.000111198
0.000133131
0.000153302
0.000171579
0.000188078
0.000203015
0.000216633
0.000229162
0.000240801
0.000251719
0.000262049
0.000271902
0.000281366
0.000290514
0.000299409
0.000308107
0.000316662
0.000325123
0.000333535
0.000341937
0.000350364
0.000358844
0.000367404
0.000376063
0.00038484
0.00039375
0.00040281
0.000412036
0.000421443
0.00043105
0.000440874
0.000450936
0.000461255
0.000471853
0.000482752
0.000493975
0.000505546
0.000517488
0.000529825
0.000542583
0.000555799
0.000569511
0.000583757
0.000598577
0.000614017
0.000630138
0.000646943
0.000664437
0.000682621
0.000701455
0.000720992
0.000741267
0.000762338
0.000784245
0.00080701
0.000830648
0.000855169
0.000880583
0.000906892
0.000934098
0.000962197
0.000991183
0.00102104
0.00105177
0.00108334
0.00111573
0.00114892
0.00118289
0.00121761
0.00125304
0.00128915
0.00132592
0.00136329
0.00140124
0.00143972
0.00147871
0.00151814
0.001558
0.00159823
0.00163879
0.00167964
0.00172075
0.00176207
0.00180355
0.00184517
0.00188688
0.00192863
0.00197039
0.00201212
0.00205378
0.00209532
0.00213672
0.00217793
0.00221891
0.00225963
0.00230004
0.00234012
0.00237981
0.00241911
0.00245797
0.00249637
0.00253424
0.00257154
0.00260825
0.00264434
0.00267978
0.00271457
0.00274868
0.00278208
0.00281478
0.00284673
0.00287793
0.00290835
0.00293797
0.00296677
0.00299472
0.0030218
0.00304799
0.00307328
0.00309765
0.00312108
0.00314355
0.00316505
0.00318556
0.00320508
0.00322359
0.00324109
0.00325756
0.00327301
0.00328746
0.00330109
0.00331349
0.00332492
0.0033352
0.00334447
0.00335274
0.00336
0.00336625
0.00337153
0.00337584
0.0033792
0.00338163
0.00338316
0.00338379
0.00338353
0.0033824
0.00338038
0.00337741
0.00337337
0.00336791
0.00336026
0.00334917
0.00333432
0.00331617
0.00329545
0.00327277
0.00324852
0.00322296
0.00319629
0.00316863
0.00314009
0.00311076
0.00308071
0.00305001
0.00301872
0.00298688
0.00295455
0.00292176
0.00288849
0.00285467
0.00282009
0.00278261
0.00272612
6.03996e-06
1.00638e-05
1.86091e-05
3.34232e-05
5.46925e-05
8.05928e-05
0.000108496
0.000136101
0.000162011
0.000185632
0.000206868
0.000225888
0.000242973
0.00025843
0.000272552
0.000285595
0.00029778
0.000309286
0.000320262
0.000330829
0.000341086
0.000351115
0.000360987
0.00037076
0.000380488
0.000390216
0.000399983
0.000409824
0.000419769
0.000429844
0.000440072
0.000450476
0.000461076
0.000471893
0.000482948
0.000494263
0.000505859
0.000517761
0.000529992
0.000542578
0.000555547
0.000568924
0.000582738
0.00059702
0.000611798
0.000627104
0.000642974
0.000659442
0.000676546
0.000694324
0.000712812
0.000732044
0.000752051
0.000772849
0.000794454
0.000816878
0.00084014
0.000864284
0.000889364
0.00091537
0.000942296
0.000970147
0.000998923
0.00102862
0.00105925
0.00109078
0.00112322
0.00115654
0.00119073
0.00122577
0.00126164
0.00129831
0.00133575
0.00137393
0.00141282
0.00145239
0.0014926
0.00153342
0.00157481
0.00161672
0.00165913
0.00170199
0.00174526
0.0017889
0.00183288
0.00187714
0.00192165
0.00196638
0.00201127
0.00205629
0.0021014
0.00214656
0.00219172
0.00223686
0.00228193
0.00232688
0.00237169
0.00241631
0.0024607
0.00250484
0.00254867
0.00259216
0.00263528
0.00267798
0.00272023
0.00276199
0.00280323
0.00284391
0.00288398
0.00292342
0.00296219
0.00300027
0.00303763
0.00307425
0.00311011
0.00314518
0.00317944
0.00321287
0.00324545
0.00327716
0.00330797
0.00333785
0.00336679
0.00339476
0.00342175
0.00344774
0.00347271
0.00349663
0.00351951
0.00354131
0.00356204
0.00358167
0.00360021
0.00361763
0.00363394
0.00364913
0.00366324
0.00367638
0.00368827
0.00369906
0.00370868
0.00371721
0.00372459
0.00373088
0.0037361
0.00374026
0.00374338
0.00374549
0.00374661
0.00374675
0.00374595
0.00374422
0.00374157
0.003738
0.00373348
0.00372794
0.00372115
0.00371269
0.0037019
0.00368846
0.00367249
0.00365433
0.00363434
0.00361282
0.00358997
0.00356595
0.00354089
0.00351488
0.00348801
0.00346035
0.00343197
0.00340292
0.00337327
0.00334306
0.00331235
0.00328116
0.00324944
0.00321697
0.0031818
0.00313197
6.17411e-06
1.12875e-05
2.19257e-05
4.00351e-05
6.54887e-05
9.58611e-05
0.000128093
0.000159618
0.000188961
0.000215528
0.000239266
0.000260398
0.000279268
0.000296244
0.000311677
0.000325877
0.000339109
0.000351593
0.000363511
0.00037501
0.000386209
0.000397207
0.000408083
0.000418905
0.000429729
0.000440602
0.000451566
0.000462656
0.000473903
0.000485336
0.00049698
0.000508862
0.000521004
0.000533431
0.000546168
0.00055924
0.000572672
0.000586492
0.000600727
0.000615406
0.000630559
0.000646215
0.000662405
0.000679162
0.000696518
0.000714506
0.000733159
0.000752512
0.000772597
0.000793446
0.00081509
0.000837554
0.00086086
0.000885027
0.00091007
0.000936006
0.000962852
0.000990627
0.00101935
0.00104901
0.00107962
0.00111115
0.00114362
0.00117701
0.0012113
0.00124648
0.00128254
0.00131946
0.0013572
0.00139576
0.00143509
0.00147517
0.00151597
0.00155746
0.00159959
0.00164235
0.00168569
0.00172957
0.00177396
0.00181882
0.00186411
0.00190979
0.00195582
0.00200216
0.00204877
0.00209562
0.00214266
0.00218986
0.00223716
0.00228455
0.00233197
0.00237938
0.00242676
0.00247404
0.00252121
0.00256822
0.00261503
0.0026616
0.0027079
0.00275388
0.00279952
0.00284476
0.00288958
0.00293394
0.0029778
0.00302113
0.00306388
0.00310603
0.00314753
0.00318836
0.00322848
0.00326786
0.00330648
0.00334431
0.00338133
0.00341752
0.00345284
0.00348728
0.0035208
0.0035534
0.00358504
0.0036157
0.00364535
0.00367399
0.00370158
0.00372811
0.00375357
0.00377792
0.00380117
0.0038233
0.00384429
0.00386413
0.00388282
0.00390035
0.00391671
0.0039319
0.00394597
0.00395891
0.00397066
0.00398126
0.00399067
0.00399892
0.00400593
0.0040118
0.00401656
0.00402022
0.00402281
0.00402434
0.00402484
0.00402434
0.00402286
0.00402042
0.00401704
0.00401273
0.00400749
0.00400126
0.00399393
0.00398525
0.00397489
0.0039626
0.00394836
0.00393232
0.00391466
0.00389558
0.00387523
0.00385374
0.00383121
0.00380774
0.00378339
0.00375825
0.00373238
0.00370584
0.0036787
0.00365101
0.00362285
0.00359427
0.00356526
0.00353564
0.00350371
0.00346121
6.37312e-06
1.23621e-05
2.46413e-05
4.5468e-05
7.45961e-05
0.000109094
0.000145407
0.000180662
0.000213237
0.000242528
0.000268523
0.000291514
0.000311918
0.000330172
0.000346688
0.000361832
0.000375913
0.00038919
0.000401873
0.000414134
0.000426111
0.000437913
0.00044963
0.000461336
0.000473091
0.000484944
0.000496938
0.00050911
0.000521494
0.000534118
0.000547011
0.0005602
0.00057371
0.000587567
0.000601799
0.000616433
0.000631495
0.000647014
0.000663019
0.00067954
0.000696607
0.000714249
0.000732499
0.000751386
0.000770942
0.000791197
0.000812181
0.000833925
0.000856454
0.000879794
0.00090397
0.000928999
0.0009549
0.000981687
0.00100937
0.00103796
0.00106747
0.00109791
0.00112927
0.00116156
0.00119476
0.00122886
0.00126386
0.00129975
0.00133649
0.00137409
0.00141251
0.00145173
0.00149173
0.00153248
0.00157396
0.00161613
0.00165897
0.00170244
0.00174651
0.00179114
0.00183631
0.00188197
0.00192809
0.00197464
0.00202157
0.00206886
0.00211646
0.00216434
0.00221246
0.00226078
0.00230926
0.00235787
0.00240656
0.00245531
0.00250406
0.00255279
0.00260146
0.00265002
0.00269844
0.00274668
0.0027947
0.00284246
0.00288993
0.00293706
0.00298383
0.00303019
0.0030761
0.00312153
0.00316644
0.00321079
0.00325456
0.00329769
0.00334017
0.00338194
0.00342299
0.00346329
0.0035028
0.00354149
0.00357935
0.00361633
0.00365243
0.00368761
0.00372185
0.00375512
0.0037874
0.00381867
0.0038489
0.00387807
0.00390617
0.00393318
0.00395908
0.00398384
0.00400747
0.00402994
0.00405125
0.00407138
0.00409033
0.00410809
0.00412465
0.00414002
0.00415422
0.00416723
0.00417907
0.00418978
0.00419931
0.00420755
0.00421452
0.00422035
0.00422505
0.00422864
0.00423112
0.00423253
0.00423289
0.00423223
0.00423058
0.00422796
0.0042244
0.0042199
0.00421448
0.00420811
0.00420073
0.00419223
0.0041824
0.00417111
0.0041583
0.00414401
0.00412832
0.00411136
0.00409323
0.00407403
0.00405384
0.00403275
0.00401082
0.00398813
0.00396474
0.00394071
0.00391612
0.00389104
0.00386556
0.00383974
0.00381363
0.0037871
0.0037587
0.00372295
7.16987e-06
1.28741e-05
2.54662e-05
4.78784e-05
8.01114e-05
0.000118681
0.000159182
0.000198327
0.000234206
0.000266191
0.000294335
0.000319027
0.000340777
0.000360108
0.000377507
0.000393397
0.000408136
0.000422022
0.000435293
0.000448143
0.000460725
0.000473161
0.00048555
0.000497968
0.00051048
0.000523137
0.000535983
0.000549057
0.00056239
0.000576015
0.000589959
0.000604249
0.000618913
0.000633977
0.000649467
0.000665412
0.000681837
0.000698771
0.000716242
0.000734278
0.000752908
0.000772159
0.000792061
0.000812641
0.000833926
0.000855942
0.000878715
0.000902267
0.000926621
0.000951797
0.00097781
0.00100468
0.00103241
0.00106101
0.00109049
0.00112086
0.00115212
0.00118427
0.0012173
0.00125122
0.001286
0.00132164
0.00135812
0.00139543
0.00143356
0.00147248
0.00151217
0.00155261
0.00159378
0.00163565
0.0016782
0.00172139
0.00176521
0.00180962
0.0018546
0.00190011
0.00194611
0.00199259
0.00203951
0.00208683
0.00213452
0.00218255
0.00223088
0.00227948
0.00232832
0.00237735
0.00242654
0.00247585
0.00252526
0.00257471
0.00262418
0.00267363
0.00272301
0.00277229
0.00282144
0.0028704
0.00291915
0.00296764
0.00301585
0.00306372
0.00311122
0.00315831
0.00320495
0.00325112
0.00329675
0.00334183
0.00338632
0.00343017
0.00347335
0.00351584
0.00355758
0.00359856
0.00363875
0.0036781
0.0037166
0.00375422
0.00379093
0.00382671
0.00386152
0.00389534
0.00392816
0.00395994
0.00399067
0.00402032
0.00404888
0.00407632
0.00410264
0.00412781
0.00415182
0.00417467
0.00419633
0.0042168
0.00423608
0.00425415
0.00427101
0.00428667
0.00430113
0.00431434
0.00432652
0.00433752
0.00434736
0.00435573
0.00436293
0.00436898
0.00437388
0.00437767
0.00438035
0.00438195
0.0043825
0.00438202
0.00438055
0.00437812
0.00437474
0.00437043
0.00436522
0.00435909
0.00435202
0.00434395
0.00433479
0.00432446
0.00431289
0.00430011
0.00428613
0.00427103
0.00425488
0.00423774
0.0042197
0.00420082
0.00418116
0.00416079
0.00413977
0.00411817
0.00409608
0.00407356
0.00405073
0.00402766
0.00400444
0.00398098
0.00395608
0.00392633
8.18733e-06
1.31349e-05
2.5145e-05
4.79802e-05
8.24055e-05
0.000124653
0.000169238
0.000212331
0.000251555
0.000286206
0.000316405
0.000342649
0.000365565
0.000385777
0.000403854
0.000420286
0.000435485
0.000449783
0.000463451
0.000476701
0.000489702
0.000502586
0.000515456
0.000528395
0.000541468
0.000554728
0.00056822
0.00058198
0.000596042
0.000610435
0.000625188
0.000640327
0.000655877
0.000671865
0.000688315
0.000705254
0.000722706
0.000740697
0.000759254
0.0007784
0.000798161
0.000818563
0.000839628
0.000861381
0.000883844
0.000907038
0.000930983
0.000955696
0.000981196
0.0010075
0.00103461
0.00106254
0.0010913
0.0011209
0.00115134
0.00118261
0.00121473
0.00124769
0.00128147
0.00131608
0.00135151
0.00138774
0.00142476
0.00146257
0.00150113
0.00154044
0.00158048
0.00162123
0.00166267
0.00170478
0.00174754
0.00179092
0.0018349
0.00187946
0.00192457
0.0019702
0.00201634
0.00206294
0.00210998
0.00215743
0.00220526
0.00225344
0.00230195
0.00235073
0.00239977
0.00244902
0.00249846
0.00254804
0.00259774
0.00264751
0.00269731
0.00274711
0.00279688
0.00284656
0.00289612
0.00294553
0.00299473
0.0030437
0.00309239
0.00314077
0.00318878
0.0032364
0.00328358
0.00333028
0.00337647
0.00342211
0.00346715
0.00351157
0.00355531
0.00359836
0.00364067
0.00368221
0.00372294
0.00376285
0.00380188
0.00384003
0.00387726
0.00391354
0.00394884
0.00398315
0.00401644
0.00404867
0.00407985
0.00410993
0.00413892
0.00416678
0.0041935
0.00421906
0.00424347
0.00426669
0.00428873
0.00430958
0.00432923
0.00434766
0.00436489
0.00438091
0.00439563
0.00440933
0.0044219
0.00443341
0.00444348
0.00445222
0.00445981
0.00446625
0.00447155
0.00447574
0.00447883
0.00448085
0.00448182
0.00448178
0.00448075
0.00447877
0.00447585
0.00447203
0.00446731
0.00446171
0.00445521
0.00444781
0.00443945
0.0044301
0.00441973
0.00440833
0.00439591
0.00438251
0.00436818
0.00435297
0.00433693
0.00432012
0.00430261
0.00428445
0.00426571
0.00424646
0.00422678
0.00420675
0.00418649
0.00416609
0.00414567
0.00412517
0.00410361
0.00407914
9.33838e-06
1.33306e-05
2.42977e-05
4.66886e-05
8.23275e-05
0.000127559
0.000175975
0.000222694
0.000265154
0.000302338