/*--------------------------------*- C++ -*----------------------------------*\
| =========                 |                                                 |
| \\      /  F ield         | OpenFOAM: The Open Source CFD Toolbox           |
|  \\    /   O peration     | Version:  2412                                  |
|   \\  /    A nd           | Website:  www.openfoam.com                      |
|    \\/     M anipulation  |                                                 |
\*---------------------------------------------------------------------------*/
FoamFile
{
    version     2.0;
    format      ascii;
    arch        "LSB;label=32;scalar=64";
    class       volScalarField;
    location    "300";
    object      p;
}
// * * * * * * * * * * * * * * * * * * * * * * * * * * * * * * * * * * * * * //

dimensions      [0 2 -2 0 0 0 0];

internalField   nonuniform List<scalar> 
12225
(
25.4462
7.27786
1.69923
0.999613
0.263933
-0.603095
-1.28993
-1.82987
-2.30055
-2.73524
-3.1469
-3.5448
-3.93707
-4.33136
-4.73413
-5.15713
-5.59924
-6.07945
19.6642
6.82186
1.9667
1.10882
0.318895
-0.571312
-1.27004
-1.81272
-2.28506
-2.72202
-3.13562
-3.53495
-3.92829
-4.32334
-4.72624
-5.14826
-5.58959
-6.07639
15.9539
7.19811
2.46412
1.26186
0.427595
-0.481806
-1.20802
-1.76544
-2.24594
-2.68932
-3.10757
-3.50974
-3.90459
-4.29981
-4.70044
-5.11405
-5.52396
-5.90331
13.8267
7.6357
2.96796
1.43614
0.579071
-0.332058
-1.09063
-1.67165
-2.16586
-2.61998
-3.0463
-3.45319
-3.84972
-4.24302
-4.63615
-5.02994
-5.39141
-5.68307
11.971
7.53693
3.30892
1.6177
0.743515
-0.153948
-0.935158
-1.53932
-2.04694
-2.51097
-2.94478
-3.35548
-3.7515
-4.13887
-4.51784
-4.8833
-5.19687
-5.429
10.2409
7.11265
3.52507
1.79798
0.894347
0.0189485
-0.767347
-1.38778
-1.90564
-2.37596
-2.81392
-3.2252
-3.61663
-3.99293
-4.35193
-4.68502
-4.95773
-5.1473
8.85432
6.58102
3.624
1.94475
1.01486
0.167173
-0.607329
-1.2347
-1.75849
-2.23075
-2.66849
-3.0764
-3.45954
-3.82116
-4.1579
-4.46009
-4.70128
-4.86283
7.8149
6.05776
3.623
2.04249
1.10473
0.287325
-0.464899
-1.09085
-1.61652
-2.08734
-2.5214
-2.92297
-3.29564
-3.64143
-3.95692
-4.23318
-4.45236
-4.59978
6.89472
5.56836
3.56428
2.10341
1.17455
0.386473
-0.339336
-0.957848
-1.48217
-1.94949
-2.37785
-2.77153
-3.13309
-3.46373
-3.76068
-4.01683
-4.2213
-4.36389
6.05197
5.08314
3.46145
2.13764
1.23276
0.473704
-0.224232
-0.831149
-1.35157
-1.81425
-2.23598
-2.62123
-2.97199
-3.28907
-3.57062
-3.8117
-4.00651
-4.14865
5.32762
4.62292
3.32306
2.14541
1.27967
0.552181
-0.116125
-0.707616
-1.22133
-1.67812
-2.09258
-2.46933
-2.81004
-3.11548
-3.38474
-3.61498
-3.80376
-3.94749
4.76083
4.22667
3.16945
2.12782
1.31048
0.615616
-0.0234782
-0.597405
-1.10214
-1.55201
-1.95913
-2.32804
-2.66031
-2.9568
-3.21735
-3.44066
-3.6263
-3.77232
4.2759
3.86183
3.00469
2.09254
1.32925
0.669304
0.0608005
-0.493051
-0.986388
-1.4278
-1.82683
-2.18779
-2.51218
-2.801
-3.05467
-3.27312
-3.45715
-3.60605
3.80619
3.48954
2.81303
2.03521
1.33775
0.71965
0.146581
-0.382136
-0.859803
-1.28981
-1.67876
-2.03046
-2.3464
-2.62767
-2.87525
-3.08996
-3.27348
-3.42597
3.37223
3.13246
2.60732
1.95899
1.33591
0.7654
0.231188
-0.268083
-0.725806
-1.14134
-1.51827
-1.85952
-2.16656
-2.44057
-2.68288
-2.89489
-3.07873
-3.23518
3.00065
2.81832
2.41064
1.87631
1.3289
0.80841
0.313942
-0.153819
-0.588618
-0.987302
-1.35077
-1.68084
-1.97883
-2.24597
-2.48373
-2.69381
-2.87841
-3.03878
2.72595
2.58304
2.2577
1.8115
1.33002
0.855681
0.397646
-0.040343
-0.452217
-0.833565
-1.18339
-1.50244
-1.7918
-2.05267
-2.28653
-2.49512
-2.68052
-2.8443
2.59878
2.47788
2.19807
1.80329
1.36381
0.921056
0.488781
0.0726271
-0.321459
-0.688674
-1.0271
-1.33688
-1.61895
-1.87453
-2.10508
-2.3123
-2.49809
-2.66426
2.70513
2.58457
2.30419
1.90832
1.46904
1.02872
0.600573
0.189286
-0.199664
-0.561613
-0.894837
-1.19981
-1.47778
-1.73022
-1.95874
-2.16519
-2.3514
-2.51953
3.10665
2.95271
2.60329
2.1308
1.63335
1.15559
0.701788
0.271668
-0.129868
-0.498803
-0.835183
-1.14107
-1.41867
-1.66999
-1.89709
-2.10218
-2.28722
-2.4547
3.64748
3.43712
2.96848
2.37126
1.78771
1.2576
0.766572
0.308109
-0.112136
-0.491447
-0.832943
-1.14095
-1.4187
-1.66887
-1.89412
-2.09709
-2.28001
-2.44561
4.3494
4.04097
3.37788
2.60185
1.91458
1.32788
0.794812
0.304291
-0.135265
-0.523946
-0.869442
-1.1785
-1.45525
-1.70306
-1.92527
-2.12501
-2.30472
-2.46732
5.21531
4.74373
3.78932
2.78978
1.99986
1.3614
0.785763
0.264619
-0.190177
-0.584664
-0.931904
-1.24031
-1.51449
-1.75858
-1.97667
-2.17242
-2.34841
-2.50788
6.2637
5.52171
4.1563
2.91507
2.04805
1.36555
0.744671
0.195205
-0.269415
-0.665747
-1.01246
-1.31855
-1.58877
-1.82807
-2.04126
-2.23242
-2.4045
-2.56126
7.52571
6.36128
4.42739
2.94344
2.04406
1.33267
0.670003
0.0981524
-0.371345
-0.767214
-1.112
-1.41433
-1.67934
-1.91279
-2.12013
-2.30543
-2.47225
-2.62347
9.06464
7.27894
4.59655
2.87656
1.96868
1.23434
0.544034
-0.0342731
-0.500046
-0.891028
-1.22972
-1.52418
-1.78058
-2.00554
-2.20474
-2.3819
-2.54114
-2.68155
10.8767
8.03523
4.61924
2.79032
1.87129
1.09377
0.389624
-0.177442
-0.631667
-1.01408
-1.34338
-1.62743
-1.87377
-2.08966
-2.2807
-2.45034
-2.60302
-2.73508
12.9844
8.07992
4.213
2.63128
1.76448
0.945074
0.23903
-0.310309
-0.751699
-1.12445
-1.44345
-1.71738
-1.9548
-2.16302
-2.34732
-2.511
-2.65844
-2.78675
16.6605
7.99394
3.57817
2.38479
1.62849
0.814968
0.128508
-0.402208
-0.831753
-1.19379
-1.502
-1.76653
-1.99653
-2.19888
-2.3785
-2.53857
-2.68291
-2.81038
22.87
9.06256
3.30314
2.16
1.49274
0.733276
0.085656
-0.426772
-0.850024
-1.20902
-1.51514
-1.77833
-2.00749
-2.20921
-2.38828
-2.54795
-2.69183
-2.81966
-4.92457
-4.92442
-4.92432
-4.92436
-4.92456
-4.92494
-4.92548
-4.92617
-4.92702
-4.928
-4.9291
-4.93031
-4.93161
-4.93299
-4.93445
-4.93598
-4.93758
-4.93924
-4.94098
-4.9428
-4.94469
-4.94667
-4.94873
-4.95089
-4.95314
-4.9555
-4.95798
-4.96058
-4.96331
-4.96618
-4.9692
-4.97237
-4.97571
-4.97922
-4.98291
-4.98679
-4.99086
-4.99514
-4.99963
-5.00433
-5.00927
-5.01443
-5.01984
-5.02548
-5.03138
-5.03753
-5.04393
-5.05058
-5.0575
-5.06466
-5.07207
-5.07971
-5.08759
-5.09568
-5.10396
-5.11242
-5.12103
-5.12975
-5.13854
-5.14736
-5.15615
-5.16487
-5.17344
-5.18178
-5.18982
-5.19746
-5.20461
-5.21114
-5.21693
-5.22187
-5.22579
-5.22855
-5.22999
-5.22992
-5.22817
-5.22454
-5.21881
-5.21078
-5.20022
-5.18689
-5.17055
-5.15093
-5.12779
-5.10085
-5.06985
-5.0345
-4.99452
-4.94963
-4.89952
-4.84391
-4.78255
-4.71517
-4.64146
-4.56114
-4.47394
-4.3796
-4.27786
-4.16849
-4.05123
-3.92588
-3.79223
-3.6501
-3.49931
-3.33971
-3.17113
-2.99347
-2.8066
-2.61051
-2.4051
-2.1904
-1.96639
-1.73313
-1.49067
-1.23918
-0.97883
-0.709734
-0.431916
-0.145622
0.14889
0.451302
0.761301
1.07853
1.40266
1.73329
2.07
2.41233
2.75979
3.11187
3.46804
3.82776
4.19045
4.55554
4.92242
5.29049
5.65913
6.02773
6.39566
6.76232
7.12709
7.48936
7.84854
8.20406
8.55533
8.90184
9.24305
9.57848
9.90766
10.2302
10.5456
10.8536
11.1538
11.446
11.7299
12.0053
12.2722
12.5306
12.7806
13.0225
13.2555
13.4785
13.6915
13.8948
14.0889
14.2742
14.4508
14.619
14.779
14.9309
15.0752
15.2119
15.3413
15.4639
15.5798
15.6897
15.7942
15.8943
15.9917
16.088
16.1964
16.2869
-4.92472
-4.92453
-4.92442
-4.92446
-4.92466
-4.92501
-4.92551
-4.92615
-4.92692
-4.92781
-4.92881
-4.92991
-4.9311
-4.93237
-4.93372
-4.93514
-4.93663
-4.93821
-4.93985
-4.94158
-4.94339
-4.94529
-4.94727
-4.94935
-4.95153
-4.95381
-4.95621
-4.95872
-4.96137
-4.96414
-4.96706
-4.97013
-4.97336
-4.97675
-4.98032
-4.98407
-4.98801
-4.99215
-4.99649
-5.00104
-5.00581
-5.01081
-5.01604
-5.0215
-5.02721
-5.03317
-5.03937
-5.04582
-5.05252
-5.05947
-5.06666
-5.07408
-5.08173
-5.08959
-5.09764
-5.10587
-5.11424
-5.12273
-5.1313
-5.1399
-5.14849
-5.157
-5.16538
-5.17355
-5.18142
-5.18891
-5.19591
-5.20232
-5.20802
-5.21287
-5.21673
-5.21945
-5.22087
-5.22082
-5.21909
-5.21552
-5.20988
-5.20196
-5.19152
-5.17835
-5.16218
-5.14278
-5.11987
-5.09319
-5.06247
-5.02743
-4.9878
-4.94327
-4.89352
-4.83831
-4.77738
-4.71045
-4.63722
-4.5574
-4.47072
-4.37692
-4.27575
-4.16695
-4.05031
-3.92559
-3.7926
-3.65115
-3.50107
-3.34219
-3.17438
-2.99748
-2.81144
-2.61616
-2.41162
-2.19781
-1.97476
-1.74248
-1.50099
-1.25038
-0.990813
-0.72249
-0.445612
-0.160335
0.133103
0.434415
0.743286
1.05938
1.38235
1.71182
2.04736
2.38851
2.73479
3.08569
3.4407
3.79925
4.1608
4.52476
4.89054
5.25753
5.62513
5.99272
6.35969
6.72542
7.08931
7.45076
7.80918
8.16399
8.51463
8.86055
9.20126
9.53625
9.86507
10.1873
10.5025
10.8104
11.1106
11.4028
11.6868
11.9625
12.2298
12.4887
12.7394
12.982
13.2157
13.4396
13.6538
13.8584
14.0539
14.2405
14.4184
14.5879
14.7492
14.9025
15.048
15.1859
15.3166
15.4404
15.5576
15.6689
15.7747
15.8762
15.9754
16.0729
16.1835
16.2696
-4.92418
-4.924
-4.92391
-4.92397
-4.92419
-4.92455
-4.92504
-4.92566
-4.92639
-4.92722
-4.92814
-4.92915
-4.93023
-4.93139
-4.93262
-4.93393
-4.9353
-4.93675
-4.93828
-4.93988
-4.94157
-4.94333
-4.94518
-4.94713
-4.94917
-4.95131
-4.95356
-4.95593
-4.95842
-4.96104
-4.96379
-4.96669
-4.96973
-4.97294
-4.9763
-4.97984
-4.98356
-4.98747
-4.99156
-4.99586
-5.00037
-5.00509
-5.01004
-5.01521
-5.02061
-5.02625
-5.03213
-5.03826
-5.04463
-5.05124
-5.05809
-5.06518
-5.07248
-5.08
-5.08772
-5.09562
-5.10367
-5.11186
-5.12013
-5.12846
-5.13678
-5.14506
-5.15322
-5.1612
-5.16891
-5.17626
-5.18317
-5.18951
-5.19517
-5.20002
-5.20392
-5.20671
-5.20824
-5.20833
-5.20679
-5.20342
-5.19803
-5.19038
-5.18025
-5.16742
-5.15162
-5.13261
-5.11013
-5.08391
-5.05367
-5.01916
-4.98008
-4.93613
-4.88701
-4.83244
-4.7722
-4.70599
-4.63352
-4.5545
-4.46866
-4.37575
-4.27551
-4.1677
-4.05209
-3.92845
-3.7966
-3.65634
-3.5075
-3.34992
-3.18346
-3.00797
-2.82338
-2.62963
-2.42667
-2.21447
-1.99303
-1.76237
-1.52259
-1.27378
-1.01605
-0.749576
-0.474577
-0.191212
0.10028
0.399627
0.706513
1.02063
1.34161
1.6691
2.00267
2.34187
2.68622
3.03524
3.38839
3.74514
4.10493
4.4672
4.83134
5.19677
5.56288
5.92906
6.2947
6.65919
7.02194
7.38234
7.73982
8.0938
8.44371
8.78902
9.12922
9.46382
9.79236
10.1144
10.4296
10.7375
11.0379
11.3305
11.615
11.8913
12.1593
12.4188
12.67
12.9125
13.1463
13.3711
13.5867
13.7932
13.9906
14.1792
14.3592
14.5307
14.694
14.8492
14.9967
15.1367
15.2694
15.3952
15.5145
15.6279
15.736
15.8397
15.9414
16.0402
16.1528
16.2298
-4.92282
-4.92271
-4.9227
-4.92284
-4.92312
-4.92354
-4.92407
-4.92471
-4.92544
-4.92625
-4.92713
-4.92807
-4.92907
-4.93013
-4.93126
-4.93244
-4.93369
-4.93501
-4.9364
-4.93785
-4.93938
-4.94099
-4.94268
-4.94446
-4.94633
-4.9483
-4.95037
-4.95256
-4.95486
-4.95728
-4.95983
-4.96252
-4.96534
-4.96832
-4.97145
-4.97473
-4.97819
-4.98183
-4.98564
-4.98966
-4.99387
-4.99828
-5.00291
-5.00777
-5.01285
-5.01816
-5.02372
-5.02951
-5.03555
-5.04184
-5.04837
-5.05514
-5.06215
-5.06938
-5.07682
-5.08446
-5.09226
-5.10022
-5.10828
-5.11642
-5.12458
-5.13272
-5.14077
-5.14867
-5.15632
-5.16365
-5.17056
-5.17693
-5.18265
-5.18758
-5.19159
-5.19452
-5.1962
-5.19648
-5.19514
-5.19201
-5.18688
-5.17951
-5.1697
-5.1572
-5.14177
-5.12315
-5.10109
-5.07533
-5.0456
-5.01162
-4.97312
-4.9298
-4.88135
-4.82752
-4.76806
-4.70269
-4.63112
-4.55306
-4.46824
-4.37642
-4.27734
-4.17075
-4.05643
-3.93416
-3.80374
-3.66499
-3.51772
-3.36176
-3.19698
-3.02325
-2.84047
-2.64858
-2.44751
-2.23724
-2.01779
-1.78919
-1.5515
-1.3048
-1.04923
-0.78493
-0.51209
-0.230892
0.0584303
0.355611
0.660349
0.972338
1.29123
1.61667
1.94822
2.28545
2.6279
2.97507
3.32645
3.6815
4.03968
4.40042
4.76314
5.12723
5.49212
5.85717
6.2218
6.58539
6.94736
7.3071
7.66404
8.01759
8.3672
8.71234
9.05249
9.38715
9.71587
10.0382
10.3538
10.6623
10.9633
11.2566
11.5419
11.8191
12.0881
12.3486
12.6004
12.8431
13.0767
13.3016
13.5179
13.7253
13.9239
14.1139
14.2952
14.4682
14.633
14.7899
14.939
15.0806
15.215
15.3426
15.4637
15.5788
15.6887
15.7942
15.8975
15.9964
16.1082
16.1738
-4.92068
-4.92071
-4.92084
-4.92111
-4.92151
-4.92204
-4.92268
-4.92341
-4.92419
-4.92503
-4.9259
-4.92681
-4.92776
-4.92874
-4.92977
-4.93085
-4.93199
-4.93318
-4.93444
-4.93576
-4.93715
-4.93861
-4.94015
-4.94177
-4.94348
-4.94528
-4.94719
-4.9492
-4.95132
-4.95356
-4.95592
-4.95841
-4.96104
-4.9638
-4.96672
-4.96979
-4.97302
-4.97642
-4.98001
-4.98378
-4.98775
-4.99192
-4.99631
-5.00092
-5.00577
-5.01085
-5.01618
-5.02176
-5.02759
-5.03368
-5.04003
-5.04663
-5.05349
-5.06059
-5.06792
-5.07548
-5.08322
-5.09113
-5.09917
-5.1073
-5.11549
-5.12367
-5.13178
-5.13976
-5.14752
-5.15498
-5.16203
-5.16857
-5.17447
-5.1796
-5.18383
-5.18699
-5.18893
-5.18947
-5.18843
-5.1856
-5.18079
-5.17377
-5.16433
-5.15222
-5.13721
-5.11904
-5.09747
-5.07222
-5.04303
-5.00963
-4.97175
-4.92909
-4.88135
-4.82828
-4.76963
-4.7051
-4.63443
-4.55731
-4.4735
-4.38272
-4.28474
-4.1793
-4.06618
-3.94517
-3.81604
-3.67864
-3.53275
-3.37822
-3.2149
-3.04267
-2.86142
-2.6711
-2.47162
-2.263
-2.0452
-1.81828
-1.58228
-1.33731
-1.08344
-0.82086
-0.549708
-0.270198
0.0174578
0.31298
0.616101
0.926496
1.24385
1.56776
1.89785
2.23367
2.57475
2.92062
3.27076
3.62465
3.98173
4.34145
4.70322
5.06647
5.43058
5.79496
6.15899
6.52208
6.88364
7.24307
7.59978
7.95321
8.30278
8.64798
8.98827
9.32317
9.65221
9.97497
10.291
10.6001
10.9017
11.1957
11.4818
11.7598
12.0295
12.2907
12.543
12.786
13.0195
13.2444
13.4606
13.6684
13.8674
14.058
14.2401
14.4139
14.5796
14.7373
14.8874
15.0301
15.1656
15.2942
15.4164
15.5326
15.6436
15.7498
15.8533
15.9507
16.0591
16.1127
-4.9179
-4.91809
-4.91841
-4.91886
-4.91944
-4.92015
-4.92096
-4.92183
-4.92273
-4.92365
-4.92457
-4.92549
-4.92642
-4.92737
-4.92835
-4.92936
-4.93041
-4.93151
-4.93267
-4.93388
-4.93515
-4.9365
-4.93792
-4.93942
-4.941
-4.94268
-4.94445
-4.94632
-4.94831
-4.9504
-4.95262
-4.95496
-4.95744
-4.96006
-4.96282
-4.96574
-4.96882
-4.97208
-4.97552
-4.97915
-4.98298
-4.98703
-4.9913
-4.9958
-5.00054
-5.00553
-5.01078
-5.01629
-5.02208
-5.02814
-5.03447
-5.04108
-5.04797
-5.05512
-5.06253
-5.07018
-5.07804
-5.08608
-5.09429
-5.10261
-5.111
-5.1194
-5.12776
-5.13599
-5.14402
-5.15177
-5.15912
-5.16596
-5.17218
-5.17765
-5.18222
-5.18574
-5.18804
-5.18895
-5.18829
-5.18586
-5.18145
-5.17485
-5.16584
-5.15418
-5.13963
-5.12194
-5.10086
-5.07612
-5.04747
-5.01462
-4.97732
-4.93526
-4.88815
-4.83573
-4.77776
-4.71395
-4.64401
-4.56766
-4.48464
-4.39468
-4.29755
-4.19299
-4.08078
-3.9607
-3.83255
-3.69612
-3.55124
-3.39773
-3.23546
-3.06429
-2.88413
-2.69491
-2.49657
-2.28908
-2.07245
-1.8467
-1.61187
-1.36807
-1.11538
-0.853949
-0.583946
-0.305567
-0.0190367
0.275386
0.577426
0.886778
1.20311
1.52603
1.85516
2.19005
2.53025
2.87527
3.22461
3.57774
3.93412
4.29319
4.65437
5.01707
5.3807
5.74466
6.10832
6.47111
6.83241
7.19165
7.54824
7.9016
8.25118
8.59643
8.93683
9.27189
9.60114
9.92418
10.2406
10.55
10.8521
11.1466
11.4332
11.7117
11.9818
12.2433
12.4959
12.739
12.9727
13.1975
13.4138
13.6216
13.8209
14.0117
14.1942
14.3684
14.5346
14.693
14.8437
14.987
15.1231
15.2524
15.3752
15.492
15.6033
15.7094
15.8121
15.9071
16.0111
16.0532
-4.91463
-4.91503
-4.91557
-4.91624
-4.91705
-4.91799
-4.91903
-4.92012
-4.92119
-4.92224
-4.92326
-4.92425
-4.92522
-4.92618
-4.92714
-4.92812
-4.92913
-4.93017
-4.93126
-4.9324
-4.9336
-4.93486
-4.93619
-4.93761
-4.9391
-4.94069
-4.94237
-4.94415
-4.94604
-4.94805
-4.95017
-4.95242
-4.95481
-4.95735
-4.96003
-4.96287
-4.96589
-4.96909
-4.97248
-4.97606
-4.97987
-4.98389
-4.98816
-4.99267
-4.99743
-5.00246
-5.00777
-5.01336
-5.01924
-5.02542
-5.03189
-5.03866
-5.04572
-5.05307
-5.06069
-5.06857
-5.07669
-5.08501
-5.09351
-5.10214
-5.11086
-5.11961
-5.12832
-5.13692
-5.14533
-5.15346
-5.1612
-5.16845
-5.17508
-5.18097
-5.18595
-5.18989
-5.19262
-5.19396
-5.19373
-5.19173
-5.18776
-5.18161
-5.17303
-5.16182
-5.14772
-5.13048
-5.10986
-5.08559
-5.05741
-5.02504
-4.98822
-4.94666
-4.90005
-4.84815
-4.79072
-4.72745
-4.65805
-4.58227
-4.49982
-4.41046
-4.31393
-4.20999
-4.09842
-3.97898
-3.8515
-3.71573
-3.57153
-3.4187
-3.25713
-3.08666
-2.90723
-2.71873
-2.52114
-2.3144
-2.09854
-1.87354
-1.63949
-1.39644
-1.14452
-0.88383
-0.614574
-0.336923
-0.0511215
0.242601
0.54395
0.852641
1.16831
1.49062
1.81913
2.15343
2.49306
2.83754
3.18636
3.53901
3.89493
4.25358
4.61436
4.97671
5.34002
5.70368
6.0671
6.42967
6.79078
7.14987
7.50636
7.85965
8.20919
8.55442
8.89485
9.22998
9.55936
9.88255
10.1991
10.5088
10.8111
11.1059
11.3927
11.6714
11.9418
12.2034
12.456
12.6993
12.9332
13.1581
13.3744
13.5823
13.7816
13.9726
14.1554
14.3299
14.4964
14.6551
14.8062
14.9499
15.0865
15.2161
15.3393
15.4562
15.5674
15.6729
15.7742
15.8663
15.9659
15.9973
-4.91112
-4.91174
-4.91253
-4.91345
-4.91453
-4.91577
-4.91711
-4.91846
-4.91976
-4.921
-4.92216
-4.92326
-4.9243
-4.92531
-4.92629
-4.92728
-4.92828
-4.9293
-4.93036
-4.93146
-4.93262
-4.93384
-4.93512
-4.93649
-4.93793
-4.93947
-4.9411
-4.94283
-4.94467
-4.94663
-4.94872
-4.95093
-4.95329
-4.9558
-4.95847
-4.96131
-4.96433
-4.96754
-4.97095
-4.97459
-4.97844
-4.98254
-4.98689
-4.9915
-4.99639
-5.00157
-5.00703
-5.01281
-5.01889
-5.02529
-5.03201
-5.03904
-5.04639
-5.05404
-5.06198
-5.0702
-5.07867
-5.08736
-5.09624
-5.10527
-5.11439
-5.12356
-5.13269
-5.14173
-5.15058
-5.15915
-5.16734
-5.17504
-5.18212
-5.18844
-5.19388
-5.19826
-5.20143
-5.20321
-5.20341
-5.20184
-5.19829
-5.19255
-5.18439
-5.17358
-5.15988
-5.14304
-5.12281
-5.09893
-5.07113
-5.03914
-5.0027
-4.96151
-4.91528
-4.86376
-4.8067
-4.74381
-4.6748
-4.5994
-4.51734
-4.42837
-4.33223
-4.2287
-4.11753
-3.99852
-3.87144
-3.7361
-3.5923
-3.4399
-3.27875
-3.10873
-2.92974
-2.74171
-2.54457
-2.33831
-2.1229
-1.89838
-1.6648
-1.42222
-1.17075
-0.910526
-0.641723
-0.364529
-0.0791679
0.214119
0.515055
0.823335
1.13861
1.46052
1.78866
2.12259
2.46186
2.806
3.1545
3.50684
3.86247
4.22083
4.58136
4.94346
5.30654
5.67
6.03324
6.39563
6.75659
7.11555
7.47193
7.82513
8.17459
8.51977
8.86018
9.1953
9.5247
9.84792
10.1646
10.4743
10.7767
11.0715
11.3585
11.6373
11.9076
12.1693
12.4219
12.6653
12.8993
13.1244
13.3407
13.5486
13.7481
13.9392
14.122
14.2967
14.4635
14.6224
14.7738
14.9177
15.0545
15.1843
15.3075
15.4244
15.5351
15.6397
15.7392
15.8282
15.9237
15.9456
-4.9077
-4.90855
-4.90959
-4.91078
-4.91218
-4.91377
-4.91546
-4.91712
-4.9187
-4.92016
-4.9215
-4.92273
-4.92388
-4.92496
-4.92599
-4.92701
-4.92803
-4.92905
-4.93011
-4.9312
-4.93235
-4.93355
-4.93482
-4.93616
-4.93759
-4.93911
-4.94072
-4.94244
-4.94428
-4.94623
-4.94832
-4.95055
-4.95292
-4.95546
-4.95816
-4.96105
-4.96413
-4.96742
-4.97092
-4.97466
-4.97863
-4.98287
-4.98738
-4.99216
-4.99724
-5.00263
-5.00833
-5.01435
-5.02071
-5.0274
-5.03442
-5.04178
-5.04947
-5.05748
-5.0658
-5.07441
-5.08329
-5.0924
-5.10171
-5.11117
-5.12074
-5.13035
-5.13994
-5.14944
-5.15875
-5.16778
-5.17642
-5.18457
-5.1921
-5.19887
-5.20474
-5.20955
-5.21314
-5.21533
-5.21593
-5.21474
-5.21157
-5.20619
-5.19838
-5.18791
-5.17454
-5.15802
-5.1381
-5.11451
-5.08699
-5.05528
-5.0191
-4.97817
-4.93219
-4.88092
-4.8241
-4.76145
-4.69267
-4.61749
-4.53566
-4.44691
-4.351
-4.24769
-4.13675
-4.01797
-3.8911
-3.75598
-3.6124
-3.46024
-3.29931
-3.12953
-2.95077
-2.76298
-2.56608
-2.36007
-2.14491
-1.92066
-1.68731
-1.44499
-1.19377
-0.933812
-0.665258
-0.388324
-0.103204
0.189837
0.490546
0.798588
1.11364
1.43532
1.76324
2.09694
2.43601
2.77993
3.12822
3.48035
3.83578
4.19396
4.5543
4.91622
5.27912
5.64241
6.00547
6.36771
6.72852
7.08736
7.44361
7.79669
8.14602
8.4911
8.8314
9.16644
9.49575
9.81891
10.1355
10.4452
10.7475
11.0423
11.3292
11.608
11.8783
12.1398
12.3924
12.6358
12.8699
13.0951
13.3115
13.5194
13.7189
13.9101
14.093
14.2678
14.4347
14.5938
14.7453
14.8893
15.0262
15.1561
15.2792
15.3957
15.5058
15.6093
15.7069
15.7927
15.8843
15.8979
-4.90478
-4.90583
-4.90713
-4.90859
-4.91033
-4.91232
-4.9144
-4.91642
-4.91831
-4.92001
-4.92154
-4.92292
-4.92417
-4.92533
-4.92643
-4.92749
-4.92854
-4.92958
-4.93065
-4.93175
-4.9329
-4.9341
-4.93537
-4.93671
-4.93814
-4.93966
-4.94129
-4.94302
-4.94487
-4.94685
-4.94897
-4.95124
-4.95367
-4.95626
-4.95904
-4.96202
-4.9652
-4.9686
-4.97224
-4.97612
-4.98026
-4.98468
-4.98938
-4.99439
-4.9997
-5.00534
-5.01131
-5.01762
-5.02428
-5.03129
-5.03865
-5.04636
-5.05442
-5.06281
-5.07152
-5.08054
-5.08983
-5.09936
-5.1091
-5.119
-5.12901
-5.13906
-5.14909
-5.15903
-5.16878
-5.17824
-5.18731
-5.19589
-5.20383
-5.211
-5.21726
-5.22245
-5.2264
-5.22894
-5.22988
-5.22902
-5.22616
-5.22107
-5.21354
-5.20333
-5.1902
-5.17391
-5.15419
-5.1308
-5.10347
-5.07192
-5.0359
-4.99511
-4.94926
-4.89811
-4.84141
-4.77886
-4.71018
-4.63509
-4.55334
-4.46467
-4.36884
-4.26561
-4.15474
-4.03602
-3.90923
-3.77416
-3.63065
-3.47854
-3.31769
-3.14798
-2.96931
-2.7816
-2.58479
-2.37887
-2.16381
-1.93964
-1.70641
-1.46418
-1.21308
-0.953226
-0.684795
-0.407976
-0.122976
0.169955
0.470542
0.778468
1.0934
1.41495
1.74273
2.0763
2.41522
2.759
3.10714
3.45911
3.81438
4.17239
4.53257
4.89433
5.25706
5.62017
5.98305
6.34512
6.70578
7.06446
7.42053
7.7734
8.12254
8.46743
8.80755
9.14241
9.47154
9.79453
10.111
10.4205
10.7227
11.0173
11.304
11.5826
11.8527
12.1141
12.3666
12.6099
12.844
13.0693
13.2857
13.4937
13.6932
13.8843
14.0673
14.2422
14.4091
14.5682
14.7198
14.8639
15.0008
15.1306
15.2534
15.3695
15.4788
15.581
15.6766
15.7594
15.8475
15.854
-4.9028
-4.90404
-4.90556
-4.90727
-4.90936
-4.91175
-4.91426
-4.91667
-4.91886
-4.92082
-4.92253
-4.92405
-4.9254
-4.92664
-4.92778
-4.92888
-4.92994
-4.931
-4.93208
-4.93318
-4.93433
-4.93554
-4.93681
-4.93816
-4.9396
-4.94113
-4.94277
-4.94453
-4.94642
-4.94844
-4.95061
-4.95293
-4.95543
-4.95811
-4.96099
-4.96407
-4.96738
-4.97092
-4.97471
-4.97876
-4.98308
-4.9877
-4.99262
-4.99786
-5.00342
-5.00932
-5.01557
-5.02217
-5.02914
-5.03647
-5.04417
-5.05223
-5.06064
-5.0694
-5.07849
-5.08789
-5.09757
-5.1075
-5.11764
-5.12794
-5.13835
-5.1488
-5.15923
-5.16955
-5.17968
-5.18952
-5.19896
-5.20789
-5.21617
-5.22368
-5.23026
-5.23575
-5.23999
-5.2428
-5.24399
-5.24336
-5.24071
-5.23581
-5.22846
-5.2184
-5.20541
-5.18924
-5.16963
-5.14632
-5.11905
-5.08756
-5.05157
-5.0108
-4.96497
-4.91382
-4.85711
-4.79454
-4.72582
-4.6507
-4.5689
-4.48019
-4.38431
-4.28103
-4.17011
-4.05132
-3.92447
-3.78934
-3.64578
-3.49361
-3.33272
-3.16296
-2.98426
-2.7965
-2.59968
-2.39373
-2.17867
-1.95448
-1.72126
-1.47903
-1.22795
-0.968124
-0.699735
-0.422948
-0.137999
0.154891
0.455415
0.76328
1.07812
1.39958
1.72725
2.06071
2.39949
2.74314
3.09113
3.44295
3.79805
4.15589
4.51589
4.87745
5.23998
5.60286
5.96552
6.32736
6.68782
7.04625
7.40203
7.75461
8.10347
8.44807
8.78791
9.12247
9.45132
9.77401
10.0902
10.3994
10.7013
10.9957
11.2821
11.5604
11.8302
12.0914
12.3436
12.5868
12.8209
13.0461
13.2626
13.4705
13.6699
13.8611
14.044
14.2189
14.3858
14.545
14.6966
14.8407
14.9774
15.1071
15.2296
15.3451
15.4536
15.5543
15.6479
15.7278
15.8126
15.8132
-4.90219
-4.90361
-4.90532
-4.90725
-4.90965
-4.91245
-4.91538
-4.91817
-4.92067
-4.92285
-4.92473
-4.92635
-4.92777
-4.92904
-4.9302
-4.9313
-4.93236
-4.93341
-4.93447
-4.93555
-4.93669
-4.93788
-4.93915
-4.94049
-4.94193
-4.94348
-4.94513
-4.94691
-4.94883
-4.95089
-4.95311
-4.9555
-4.95808
-4.96085
-4.96382
-4.96702
-4.97045
-4.97414
-4.97808
-4.9823
-4.98681
-4.99163
-4.99676
-5.00222
-5.00802
-5.01417
-5.02068
-5.02756
-5.03481
-5.04244
-5.05043
-5.05881
-5.06754
-5.07663
-5.08604
-5.09578
-5.10579
-5.11605
-5.12652
-5.13715
-5.14789
-5.15866
-5.1694
-5.18003
-5.19045
-5.20058
-5.21029
-5.21947
-5.22799
-5.23572
-5.24251
-5.24819
-5.2526
-5.25556
-5.25688
-5.25636
-5.2538
-5.24898
-5.24168
-5.23165
-5.21867
-5.20249
-5.18286
-5.1595
-5.13218
-5.10061
-5.06453
-5.02366
-4.97771
-4.92644
-4.8696
-4.80689
-4.73803
-4.66275
-4.5808
-4.49193
-4.3959
-4.29246
-4.18137
-4.06243
-3.93542
-3.80014
-3.65642
-3.50412
-3.34309
-3.17321
-2.99438
-2.80653
-2.6096
-2.40357
-2.18843
-1.96419
-1.7309
-1.48865
-1.23755
-0.977723
-0.709343
-0.432582
-0.147659
0.145182
0.445649
0.753433
1.06819
1.38954
1.71709
2.05041
2.38904
2.73252
3.08032
3.43194
3.78683
4.14443
4.50418
4.86547
5.2277
5.59027
5.95262
6.31417
6.67431
7.03235
7.38773
7.73992
8.08838
8.43257
8.77198
9.10613
9.43456
9.75683
10.0726
10.3813
10.6829
10.9768
11.2629
11.5407
11.8102
12.071
12.3229
12.5659
12.7999
13.025
13.2414
13.4492
13.6486
13.8397
14.0226
14.1974
14.3643
14.5234
14.675
14.819
14.9556
15.085
15.2071
15.322
15.4295
15.5289
15.6205
15.6977
15.7795
15.7752
-4.90341
-4.90498
-4.90686
-4.90898
-4.91163
-4.91479
-4.91812
-4.92125
-4.92402
-4.92638
-4.92835
-4.93002
-4.93144
-4.93268
-4.9338
-4.93484
-4.93584
-4.93683
-4.93783
-4.93887
-4.93995
-4.9411
-4.94233
-4.94365
-4.94507
-4.9466
-4.94826
-4.95005
-4.95198
-4.95407
-4.95634
-4.95878
-4.96142
-4.96427
-4.96734
-4.97064
-4.97419
-4.978
-4.98209
-4.98646
-4.99114
-4.99613
-5.00145
-5.0071
-5.01311
-5.01947
-5.02619
-5.0333
-5.04078
-5.04863
-5.05687
-5.06549
-5.07447
-5.0838
-5.09346
-5.10344
-5.11369
-5.12419
-5.13488
-5.14573
-5.15668
-5.16765
-5.17858
-5.18938
-5.19997
-5.21024
-5.22008
-5.22938
-5.238
-5.2458
-5.25265
-5.25837
-5.2628
-5.26576
-5.26706
-5.2665
-5.26388
-5.25898
-5.25158
-5.24144
-5.22833
-5.212
-5.19219
-5.16866
-5.14114
-5.10937
-5.07307
-5.03197
-4.98579
-4.93428
-4.87719
-4.81423
-4.74511
-4.66958
-4.58738
-4.49826
-4.40198
-4.2983
-4.18698
-4.06781
-3.94055
-3.80506
-3.66113
-3.50865
-3.34743
-3.1774
-2.99842
-2.81044
-2.6134
-2.40727
-2.19204
-1.96774
-1.7344
-1.49213
-1.24101
-0.981205
-0.712841
-0.436128
-0.151255
0.141502
0.441876
0.749531
1.06415
1.38533
1.7127
2.04581
2.38421
2.72742
3.07495
3.42626
3.78084
4.1381
4.49747
4.85836
5.22016
5.58232
5.94426
6.30538
6.66501
7.02252
7.37735
7.729
8.0769
8.42054
8.75938
9.09296
9.4208
9.74251
10.0577
10.3659
10.6669
10.9602
11.2458
11.5231
11.7921
12.0524
12.304
12.5467
12.7804
13.0053
13.2216
13.4293
13.6285
13.8195
14.0023
14.177
14.3439
14.503
14.6544
14.7983
14.9348
15.0638
15.1856
15.2998
15.4063
15.5042
15.5939
15.6687
15.7476
15.7395
-4.90694
-4.90867
-4.91069
-4.91294
-4.9158
-4.91924
-4.92288
-4.92628
-4.92921
-4.93164
-4.93361
-4.9352
-4.93652
-4.93764
-4.93862
-4.93953
-4.94039
-4.94125
-4.94214
-4.94306
-4.94405
-4.94512
-4.94627
-4.94752
-4.94889
-4.95038
-4.952
-4.95377
-4.9557
-4.9578
-4.96009
-4.96256
-4.96525
-4.96815
-4.97129
-4.97467
-4.9783
-4.98221
-4.98641
-4.9909
-4.9957
-5.00082
-5.00627
-5.01206
-5.0182
-5.0247
-5.03157
-5.03881
-5.04643
-5.05442
-5.0628
-5.07155
-5.08065
-5.09011
-5.09989
-5.10997
-5.12032
-5.1309
-5.14167
-5.15258
-5.16357
-5.17457
-5.18552
-5.19632
-5.20688
-5.21712
-5.22691
-5.23613
-5.24466
-5.25236
-5.25907
-5.26465
-5.26891
-5.27169
-5.27279
-5.27202
-5.26917
-5.26402
-5.25635
-5.24593
-5.23252
-5.21588
-5.19577
-5.17191
-5.14406
-5.11195
-5.0753
-5.03386
-4.98733
-4.93548
-4.87805
-4.81476
-4.74531
-4.66945
-4.58693
-4.49751
-4.40094
-4.29697
-4.18537
-4.06592
-3.93842
-3.80268
-3.65855
-3.50585
-3.34446
-3.17425
-2.99513
-2.80702
-2.60987
-2.40366
-2.18837
-1.96403
-1.73069
-1.48843
-1.23736
-0.977616
-0.709344
-0.432737
-0.148005
0.144591
0.444769
0.752207
1.06658
1.3875
1.71456
2.04734
2.38537
2.7282
3.07531
3.42618
3.78028
4.13704
4.49588
4.85621
5.21745
5.57905
5.94041
6.30088
6.6598
7.01659
7.37073
7.72166
8.06883
8.41173
8.74983
9.08266
9.40977
9.73074
10.0452
10.3527
10.6529
10.9456
11.2305
11.5072
11.7755
12.0353
12.2864
12.5287
12.7621
12.9867
13.2028
13.4102
13.6093
13.8001
13.9828
14.1574
14.3242
14.4832
14.6345
14.7782
14.9145
15.0433
15.1645
15.278
15.3835
15.4801
15.568
15.6405
15.7167
15.7059
-4.91335
-4.91523
-4.91739
-4.91972
-4.92267
-4.92628
-4.9301
-4.93361
-4.93654
-4.93886
-4.94065
-4.94201
-4.94308
-4.94393
-4.94466
-4.94531
-4.94595
-4.9466
-4.94728
-4.94803
-4.94886
-4.94978
-4.95081
-4.95195
-4.95322
-4.95463
-4.95618
-4.9579
-4.95979
-4.96187
-4.96414
-4.96661
-4.9693
-4.97222
-4.97538
-4.97879
-4.98247
-4.98642
-4.99066
-4.9952
-5.00004
-5.00521
-5.0107
-5.01653
-5.0227
-5.02923
-5.03611
-5.04336
-5.05098
-5.05896
-5.06732
-5.07603
-5.0851
-5.09449
-5.1042
-5.11419
-5.12444
-5.1349
-5.14553
-5.15628
-5.16709
-5.1779
-5.18863
-5.19921
-5.20953
-5.21949
-5.229
-5.23792
-5.24613
-5.25349
-5.25986
-5.26507
-5.26897
-5.27136
-5.27206
-5.27088
-5.26761
-5.26204
-5.25394
-5.24309
-5.22925
-5.21218
-5.19162
-5.16732
-5.13903
-5.10647
-5.06941
-5.02751
-4.98058
-4.92831
-4.87047
-4.80677
-4.73692
-4.66069
-4.57782
-4.48805
-4.39116
-4.28686
-4.17497
-4.05523
-3.92748
-3.7915
-3.64716
-3.49427
-3.33273
-3.16238
-2.98316
-2.79497
-2.59779
-2.39155
-2.17628
-1.95198
-1.71872
-1.47656
-1.22563
-0.966047
-0.697978
-0.421593
-0.137134
0.155175
0.455013
0.76209
1.07606
1.39656
1.72316
2.05544
2.39294
2.7352
3.08171
3.43197
3.7854
4.14145
4.49957
4.85916
5.21967
5.5805
5.94104
6.3006
6.65858
7.01445
7.36767
7.71767
8.06392
8.40586
8.74303
9.07492
9.4011
9.72114
10.0347
10.3413
10.6407
10.9325
11.2165
11.4925
11.7601
12.0192
12.2697
12.5115
12.7445
12.9688
13.1845
13.3917
13.5906
13.7812
13.9637
14.1382
14.3048
14.4636
14.6148
14.7584
14.8944
15.0229
15.1436
15.2565
15.361
15.4563
15.5425
15.6129
15.6865
15.6738
-4.92364
-4.9257
-4.92797
-4.93029
-4.93321
-4.93679
-4.94056
-4.94391
-4.94655
-4.94847
-4.94981
-4.9507
-4.95129
-4.95169
-4.95199
-4.95226
-4.95254
-4.95286
-4.95326
-4.95374
-4.95433
-4.95504
-4.95587
-4.95685
-4.95796
-4.95924
-4.96068
-4.96229
-4.96409
-4.96608
-4.96827
-4.97068
-4.97331
-4.97617
-4.97928
-4.98263
-4.98626
-4.99015
-4.99432
-4.99878
-5.00354
-5.00861
-5.01399
-5.01969
-5.02572
-5.03208
-5.03879
-5.04583
-5.05323
-5.06098
-5.06908
-5.07752
-5.08629
-5.09537
-5.10474
-5.11437
-5.12423
-5.13428
-5.14449
-5.15479
-5.16514
-5.17547
-5.1857
-5.19576
-5.20555
-5.21499
-5.22395
-5.23233
-5.23999
-5.2468
-5.2526
-5.25724
-5.26056
-5.26237
-5.26249
-5.26072
-5.25687
-5.25071
-5.24203
-5.23059
-5.21618
-5.19851
-5.1774
-5.15253
-5.12368
-5.09059
-5.05298
-5.01061
-4.96317
-4.91043
-4.85213
-4.78799
-4.71774
-4.64112
-4.55788
-4.46777
-4.37053
-4.26594
-4.15376
-4.03377
-3.90579
-3.76963
-3.62513
-3.47213
-3.31049
-3.14009
-2.96084
-2.77267
-2.57553
-2.36939
-2.15424
-1.93012
-1.69706
-1.45516
-1.20451
-0.94524
-0.677517
-0.401538
-0.117512
0.174316
0.473634
0.78013
1.09348
1.41329
1.73917
2.07071
2.40744
2.7489
3.09458
3.44393
3.79646
4.15158
4.50873
4.86733
5.22684
5.58663
5.94603