/*--------------------------------*- C++ -*----------------------------------*\
| =========                 |                                                 |
| \\      /  F ield         | OpenFOAM: The Open Source CFD Toolbox           |
|  \\    /   O peration     | Version:  2412                                  |
|   \\  /    A nd           | Website:  www.openfoam.com                      |
|    \\/     M anipulation  |                                                 |
\*---------------------------------------------------------------------------*/
FoamFile
{
    version     2.0;
    format      ascii;
    arch        "LSB;label=32;scalar=64";
    class       surfaceScalarField;
    location    "300";
    object      phi;
}
// * * * * * * * * * * * * * * * * * * * * * * * * * * * * * * * * * * * * * //

dimensions      [0 3 -1 0 0 0 0];

oriented        oriented;

internalField   nonuniform List<scalar> 
24170
(
2.12704e-06
1.06135e-06
1.40013e-06
7.26871e-07
1.05878e-06
3.41316e-07
8.82786e-07
1.75943e-07
7.74807e-07
1.0793e-07
7.00295e-07
7.44389e-08
6.45663e-07
5.45815e-08
6.05041e-07
4.05591e-08
5.74608e-07
3.03865e-08
5.51502e-07
2.30555e-08
5.33866e-07
1.75991e-08
5.20567e-07
1.3261e-08
5.10936e-07
9.602e-09
5.04612e-07
6.29657e-09
5.01623e-07
2.96846e-09
5.02721e-07
-1.11774e-09
5.09095e-07
-6.38716e-09
-5.766e-08
5.66744e-07
3.4006e-06
1.07803e-06
2.94886e-06
1.17877e-06
2.50128e-06
7.89012e-07
2.16004e-06
5.17277e-07
1.9229e-06
3.45171e-07
1.75926e-06
2.38153e-07
1.64074e-06
1.73194e-07
1.55093e-06
1.30432e-07
1.48152e-06
9.98607e-08
1.42737e-06
7.7256e-08
1.38496e-06
6.00535e-08
1.35191e-06
4.63455e-08
1.3267e-06
3.48472e-08
1.30843e-06
2.4599e-08
1.29681e-06
1.46059e-08
1.29284e-06
2.87355e-09
1.29981e-06
-1.33354e-08
-6.25292e-08
1.3047e-06
3.87986e-06
8.60704e-07
3.84261e-06
1.21609e-06
3.63653e-06
9.95134e-07
3.37567e-06
7.78125e-07
3.12724e-06
5.93598e-07
2.91997e-06
4.45372e-07
2.75501e-06
3.38125e-07
2.62411e-06
2.61295e-07
2.5196e-06
2.04331e-07
2.43575e-06
1.61071e-07
2.36832e-06
1.27452e-07
2.31426e-06
1.00377e-07
2.27146e-06
7.7625e-08
2.23857e-06
5.7465e-08
2.21491e-06
3.82479e-08
2.20036e-06
1.74058e-08
2.19506e-06
-8.03961e-09
-5.11707e-08
2.18369e-06
4.11773e-06
6.6834e-07
4.26023e-06
1.07345e-06
4.2767e-06
9.78598e-07
4.20696e-06
8.47841e-07
4.08281e-06
7.17764e-07
3.93929e-06
5.88902e-07
3.79937e-06
4.78086e-07
3.67233e-06
3.88364e-07
3.56096e-06
3.15727e-07
3.46536e-06
2.56703e-07
3.38441e-06
2.08425e-07
3.31664e-06
1.68175e-07
3.26066e-06
1.33624e-07
3.21537e-06
1.02772e-07
3.17995e-06
7.36805e-08
3.15348e-06
4.38886e-08
3.13406e-06
1.1399e-08
-2.98103e-08
3.11271e-06
4.35375e-06
5.21732e-07
4.51368e-06
9.13611e-07
4.60541e-06
8.8695e-07
4.65246e-06
8.00848e-07
4.6537e-06
7.16567e-07
4.61866e-06
6.23969e-07
4.5624e-06
5.34366e-07
4.49584e-06
4.54938e-07
4.42606e-06
3.85521e-07
4.35777e-06
3.24991e-07
4.29387e-06
2.72326e-07
4.23591e-06
2.26144e-07
4.18462e-06
1.84909e-07
4.14032e-06
1.47075e-07
4.10289e-06
1.1111e-07
4.07168e-06
7.51086e-08
4.04469e-06
3.83943e-08
-2.1666e-09
4.01704e-06
4.62677e-06
4.04014e-07
4.75859e-06
7.81591e-07
4.85203e-06
7.93373e-07
4.92558e-06
7.27201e-07
4.97853e-06
6.63568e-07
5.00866e-06
5.93804e-07
5.02012e-06
5.2289e-07
5.0175e-06
4.5754e-07
5.00455e-06
3.98475e-07
4.98467e-06
3.44869e-07
4.96083e-06
2.96169e-07
4.93529e-06
2.5169e-07
4.90967e-06
2.10533e-07
4.88507e-06
1.71672e-07
4.86203e-06
1.34159e-07
4.84033e-06
9.68052e-08
4.81884e-06
5.98868e-08
2.18925e-08
4.79479e-06
4.92449e-06
3.12238e-07
5.03518e-06
6.7095e-07
5.12152e-06
7.07085e-07
5.18982e-06
6.58947e-07
5.24748e-06
6.05951e-07
5.29349e-06
5.47828e-07
5.32909e-06
4.87318e-07
5.35616e-06
4.30502e-07
5.37579e-06
3.78864e-07
5.38908e-06
3.31595e-07
5.39728e-06
2.87988e-07
5.40154e-06
2.47446e-07
5.40281e-06
2.09275e-07
5.40176e-06
1.72724e-07
5.39873e-06
1.37198e-07
5.39346e-06
1.02078e-07
5.38535e-06
6.80095e-08
3.46493e-08
5.37259e-06
5.24662e-06
2.45199e-07
5.35041e-06
5.67073e-07
5.43378e-06
6.23651e-07
5.49669e-06
5.95974e-07
5.54963e-06
5.52965e-07
5.59417e-06
5.03253e-07
5.63165e-06
4.49815e-07
5.66384e-06
3.98292e-07
5.69169e-06
3.51e-07
5.71569e-06
3.07588e-07
5.73627e-06
2.67401e-07
5.75381e-06
2.29899e-07
5.76858e-06
1.94507e-07
5.78066e-06
1.60644e-07
5.78995e-06
1.27909e-07
5.79598e-06
9.60432e-08
5.79834e-06
6.5653e-08
3.71115e-08
5.79588e-06
5.60165e-06
1.94876e-07
5.69892e-06
4.69825e-07
5.77941e-06
5.43169e-07
5.84158e-06
5.3383e-07
5.89303e-06
5.01537e-07
5.93631e-06
4.59997e-07
5.97294e-06
4.13203e-07
6.00474e-06
3.66518e-07
6.03295e-06
3.22804e-07
6.05823e-06
2.82321e-07
6.08097e-06
2.44669e-07
6.10142e-06
2.09462e-07
6.11964e-06
1.76291e-07
6.13554e-06
1.44748e-07
6.14887e-06
1.14585e-07
6.15917e-06
8.57472e-08
6.16612e-06
5.87031e-08
3.40409e-08
6.1692e-06
5.9898e-06
1.54861e-07
6.07552e-06
3.84106e-07
6.15263e-06
4.6606e-07
6.21564e-06
4.70798e-07
6.26837e-06
4.48791e-07
6.31289e-06
4.15459e-07
6.35058e-06
3.75498e-07
6.38309e-06
3.33994e-07
6.41178e-06
2.94099e-07
6.43747e-06
2.56623e-07
6.46063e-06
2.21502e-07
6.48154e-06
1.88543e-07
6.5003e-06
1.57522e-07
6.51685e-06
1.282e-07
6.53097e-06
1.00458e-07
6.54237e-06
7.43448e-08
6.55087e-06
5.02091e-08
2.85713e-08
6.55634e-06
6.40892e-06
1.22757e-07
6.48188e-06
3.11136e-07
6.55416e-06
3.93788e-07
6.61705e-06
4.07902e-07
6.67139e-06
3.94465e-07
6.71819e-06
3.68657e-07
6.75827e-06
3.35425e-07
6.7929e-06
2.99372e-07
6.82331e-06
2.63695e-07
6.85034e-06
2.29591e-07
6.87453e-06
1.9731e-07
6.89621e-06
1.66857e-07
6.91554e-06
1.38194e-07
6.93252e-06
1.11216e-07
6.94706e-06
8.59185e-08
6.95901e-06
6.2385e-08
6.96834e-06
4.08793e-08
2.17846e-08
6.97513e-06
5.7633e-06
1.00294e-07
5.81561e-06
2.58851e-07
5.87218e-06
3.37236e-07
5.92402e-06
3.56062e-07
5.97022e-06
3.48277e-07
6.01107e-06
3.27814e-07
6.04678e-06
2.99716e-07
6.07799e-06
2.68163e-07
6.10549e-06
2.36201e-07
6.1299e-06
2.0518e-07
6.15165e-06
1.75548e-07
6.17104e-06
1.47475e-07
6.18823e-06
1.21009e-07
6.20327e-06
9.61792e-08
6.21617e-06
7.30185e-08
6.22691e-06
5.16482e-08
6.23554e-06
3.2257e-08
1.51363e-08
6.24219e-06
7.01945e-06
7.9001e-08
7.0707e-06
2.07602e-07
7.12979e-06
2.78142e-07
7.18646e-06
2.9939e-07
7.23867e-06
2.96061e-07
7.28605e-06
2.8044e-07
7.32837e-06
2.57394e-07
7.36595e-06
2.30586e-07
7.39938e-06
2.02767e-07
7.42919e-06
1.75357e-07
7.4558e-06
1.48951e-07
7.47947e-06
1.23797e-07
7.50042e-06
1.00074e-07
7.51874e-06
7.78574e-08
7.53452e-06
5.72527e-08
7.54781e-06
3.83633e-08
7.55874e-06
2.13334e-08
6.37004e-09
7.56751e-06
8.5506e-06
5.92414e-08
8.59964e-06
1.58559e-07
8.65991e-06
2.17869e-07
8.72039e-06
2.38889e-07
8.77791e-06
2.38551e-07
8.83141e-06
2.26933e-07
8.88024e-06
2.08571e-07
8.92436e-06
1.8646e-07
8.96411e-06
1.63009e-07
8.99989e-06
1.39581e-07
9.03201e-06
1.16843e-07
9.06071e-06
9.51144e-08
9.08617e-06
7.46214e-08
9.10855e-06
5.54881e-08
9.12797e-06
3.78382e-08
9.14457e-06
2.17655e-08
9.15855e-06
7.35908e-09
-5.22817e-09
9.17016e-06
1.04172e-05
4.12373e-08
1.04635e-05
1.12307e-07
1.05238e-05
1.57473e-07
1.05873e-05
1.7539e-07
1.06496e-05
1.76254e-07
1.07089e-05
1.67663e-07
1.07641e-05
1.53377e-07
1.08147e-05
1.35816e-07
1.08609e-05
1.16824e-07
1.09028e-05
9.76598e-08
1.09407e-05
7.89462e-08
1.09748e-05
6.10631e-08
1.10052e-05
4.42057e-08
1.10322e-05
2.85572e-08
1.10558e-05
1.42001e-08
1.10763e-05
1.23636e-09
1.1094e-05
-1.03122e-08
-2.03155e-08
1.11091e-05
1.26932e-05
2.48212e-08
1.27369e-05
6.86331e-08
1.27969e-05
9.74491e-08
1.2863e-05
1.0922e-07
1.293e-05
1.09299e-07
1.29951e-05
1.02495e-07
1.30569e-05
9.16011e-08
1.31144e-05
7.82723e-08
1.31675e-05
6.38262e-08
1.32159e-05
4.91736e-08
1.326e-05
3.48746e-08
1.32999e-05
2.12213e-08
1.33356e-05
8.4314e-09
1.33676e-05
-3.37693e-09
1.33959e-05
-1.41021e-08
1.34208e-05
-2.37003e-08
1.34426e-05
-3.21514e-08
-3.93784e-08
1.34617e-05
1.54686e-05
9.37911e-09
1.5511e-05
2.62431e-08
1.55716e-05
3.68139e-08
1.56412e-05
3.96112e-08
1.57137e-05
3.67643e-08
1.57857e-05
3.04887e-08
1.58551e-05
2.22181e-08
1.59205e-05
1.28102e-08
1.59814e-05
2.93792e-09
1.60375e-05
-6.90293e-09
1.60887e-05
-1.63894e-08
1.61353e-05
-2.53355e-08
1.61773e-05
-3.3614e-08
1.62151e-05
-4.11447e-08
1.62488e-05
-4.78728e-08
1.62789e-05
-5.377e-08
1.63056e-05
-5.88424e-08
-6.3026e-08
1.63292e-05
1.88534e-05
-6.35381e-09
1.88978e-05
-1.81798e-08
1.89628e-05
-2.82754e-08
1.90395e-05
-3.70305e-08
1.91208e-05
-4.46001e-08
1.92026e-05
-5.13145e-08
1.92822e-05
-5.73955e-08
1.93579e-05
-6.29397e-08
1.94288e-05
-6.79841e-08
1.94944e-05
-7.25523e-08
1.95547e-05
-7.66611e-08
1.96097e-05
-8.03139e-08
1.96595e-05
-8.35044e-08
1.97046e-05
-8.62238e-08
1.97452e-05
-8.84649e-08
1.97816e-05
-9.02236e-08
1.98143e-05
-9.15149e-08
-9.22842e-08
1.98436e-05
2.29824e-05
-2.54099e-08
2.30368e-05
-7.25901e-08
2.31164e-05
-1.07949e-07
2.32099e-05
-1.30549e-07
2.33088e-05
-1.43508e-07
2.3408e-05
-1.50491e-07
2.35043e-05
-1.53733e-07
2.35958e-05
-1.54493e-07
2.36814e-05
-1.53609e-07
2.37606e-05
-1.51781e-07
2.38333e-05
-1.49416e-07
2.38998e-05
-1.46768e-07
2.39602e-05
-1.43951e-07
2.4015e-05
-1.41046e-07
2.40646e-05
-1.38079e-07
2.41095e-05
-1.35068e-07
2.415e-05
-1.32019e-07
-1.28882e-07
2.41866e-05
1.68288e-05
-4.35226e-08
1.68786e-05
-1.22378e-07
1.69487e-05
-1.78044e-07
1.70276e-05
-2.09349e-07
1.71081e-05
-2.24089e-07
1.71871e-05
-2.294e-07
1.72624e-05
-2.29074e-07
1.73329e-05
-2.25013e-07
1.73981e-05
-2.1881e-07
1.74579e-05
-2.11547e-07
1.75123e-05
-2.03954e-07
1.75619e-05
-1.96333e-07
1.76068e-05
-1.88907e-07
1.76475e-05
-1.81744e-07
1.76843e-05
-1.74905e-07
1.77177e-05
-1.68371e-07
1.77478e-05
-1.62146e-07
-1.56153e-07
1.7775e-05
1.46564e-05
-6.53653e-08
1.4715e-05
-1.8094e-07
1.47931e-05
-2.56113e-07
1.48759e-05
-2.92056e-07
1.49569e-05
-3.05048e-07
1.50339e-05
-3.06426e-07
1.51057e-05
-3.00837e-07
1.51715e-05
-2.9082e-07
1.52313e-05
-2.78551e-07
1.52853e-05
-2.65595e-07
1.53341e-05
-2.52702e-07
1.5378e-05
-2.40264e-07
1.54175e-05
-2.28454e-07
1.54531e-05
-2.17368e-07
1.54852e-05
-2.07005e-07
1.55142e-05
-1.97335e-07
1.55403e-05
-1.883e-07
-1.79811e-07
1.5564e-05
1.27684e-05
-9.35917e-08
1.28415e-05
-2.54049e-07
1.29312e-05
-3.45725e-07
1.30195e-05
-3.80344e-07
1.31017e-05
-3.87222e-07
1.31772e-05
-3.81897e-07
1.32454e-05
-3.68949e-07
1.33061e-05
-3.51504e-07
1.336e-05
-3.32452e-07
1.34079e-05
-3.13506e-07
1.34506e-05
-2.95364e-07
1.34887e-05
-2.78317e-07
1.35227e-05
-2.62479e-07
1.35532e-05
-2.4788e-07
1.35806e-05
-2.34439e-07
1.36054e-05
-2.22069e-07
1.36277e-05
-2.1065e-07
-2.0004e-07
1.36479e-05
1.11285e-05
-1.31151e-07
1.12221e-05
-3.47592e-07
1.13243e-05
-4.48028e-07
1.14167e-05
-4.72703e-07
1.1498e-05
-4.68533e-07
1.15697e-05
-4.53535e-07
1.16322e-05
-4.31407e-07
1.16865e-05
-4.05807e-07
1.17341e-05
-3.8001e-07
1.17761e-05
-3.55484e-07
1.18134e-05
-3.32629e-07
1.18466e-05
-3.11552e-07
1.18764e-05
-2.92281e-07
1.19033e-05
-2.74712e-07
1.19275e-05
-2.58707e-07
1.19496e-05
-2.44082e-07
1.19696e-05
-2.30677e-07
-2.18294e-07
1.19878e-05
9.7065e-06
-1.82448e-07
9.82489e-06
-4.65978e-07
9.93616e-06
-5.59268e-07
1.00278e-05
-5.64373e-07
1.01059e-05
-5.4662e-07
1.01735e-05
-5.21086e-07
1.02317e-05
-4.89591e-07
1.02823e-05
-4.56409e-07
1.0327e-05
-4.2469e-07
1.03667e-05
-3.95247e-07
1.04022e-05
-3.68115e-07
1.0434e-05
-3.43298e-07
1.04624e-05
-3.2072e-07
1.04879e-05
-3.0022e-07
1.05108e-05
-2.81574e-07
1.05313e-05
-2.64601e-07
1.05497e-05
-2.49069e-07
-2.34905e-07
1.05663e-05
8.48044e-06
-2.57529e-07
8.62004e-06
-6.0558e-07
8.73652e-06
-6.75773e-07
8.82862e-06
-6.56493e-07
8.90926e-06
-6.27264e-07
8.97969e-06
-5.91532e-07
9.04034e-06
-5.50244e-07
9.09275e-06
-5.08822e-07
9.13787e-06
-4.6981e-07
9.17612e-06
-4.33488e-07
9.20795e-06
-3.99943e-07
9.23394e-06
-3.69275e-07
9.25465e-06
-3.41439e-07
9.27068e-06
-3.1624e-07
9.28255e-06
-2.9344e-07
9.2908e-06
-2.72862e-07
9.29593e-06
-2.54181e-07
-2.37593e-07
9.29861e-06
7.42425e-06
-3.64495e-07
7.5896e-06
-7.70929e-07
7.71859e-06
-8.04775e-07
7.82478e-06
-7.62698e-07
7.91452e-06
-7.17017e-07
7.98334e-06
-6.60361e-07
8.03169e-06
-5.98604e-07
8.0622e-06
-5.39334e-07
8.07708e-06
-4.84696e-07
8.07863e-06
-4.35041e-07
8.06929e-06
-3.90611e-07
8.05139e-06
-3.51373e-07
8.0269e-06
-3.16937e-07
7.99743e-06
-2.86775e-07
7.96433e-06
-2.60338e-07
7.92864e-06
-2.37171e-07
7.89121e-06
-2.16756e-07
-1.99089e-07
7.85272e-06
6.52272e-06
-5.1714e-07
6.7283e-06
-9.76509e-07
6.87024e-06
-9.46716e-07
6.95655e-06
-8.49044e-07
6.98535e-06
-7.45814e-07
6.96389e-06
-6.38919e-07
6.90755e-06
-5.42274e-07
6.82926e-06
-4.61049e-07
6.73792e-06
-3.93355e-07
6.63989e-06
-3.37013e-07
6.53971e-06
-2.90416e-07
6.44034e-06
-2.52014e-07
6.34368e-06
-2.20273e-07
6.2508e-06
-1.93893e-07
6.1623e-06
-1.71834e-07
6.07838e-06
-1.53263e-07
5.99915e-06
-1.37521e-07
-1.24073e-07
5.92415e-06
5.80541e-06
-7.77078e-07
5.95927e-06
-1.13035e-06
5.94697e-06
-9.34429e-07
5.81542e-06
-7.17528e-07
5.61583e-06
-5.46221e-07
5.3936e-06
-4.16706e-07
5.17604e-06
-3.24712e-07
4.97446e-06
-2.59477e-07
4.79231e-06
-2.11205e-07
4.62978e-06
-1.74478e-07
4.48558e-06
-1.46208e-07
4.35775e-06
-1.2419e-07
4.24424e-06
-1.06764e-07
4.14312e-06
-9.27639e-08
4.05266e-06
-8.13783e-08
3.97136e-06
-7.19586e-08
3.89801e-06
-6.41682e-08
-5.73366e-08
3.83128e-06
5.04154e-06
-9.91001e-07
4.75318e-06
-8.41979e-07
4.31644e-06
-4.97704e-07
3.88737e-06
-2.88479e-07
3.52425e-06
-1.83104e-07
3.23743e-06
-1.29892e-07
3.0134e-06
-1.00687e-07
2.83511e-06
-8.11835e-08
2.69006e-06
-6.61653e-08
2.56998e-06
-5.43917e-08
2.46903e-06
-4.52511e-08
2.38298e-06
-3.81397e-08
2.30876e-06
-3.25479e-08
2.2441e-06
-2.80956e-08
2.18724e-06
-2.4518e-08
2.13684e-06
-2.15599e-08
2.09187e-06
-1.9191e-08
-1.69679e-08
2.05151e-06
3.21168e-06
2.3697e-06
1.87199e-06
1.58351e-06
1.40041e-06
1.27051e-06
1.16983e-06
1.08864e-06
1.02248e-06
9.68087e-07
9.22836e-07
8.84696e-07
8.52149e-07
8.24053e-07
7.99535e-07
7.77976e-07
7.58785e-07
7.41818e-07
2.16846e-10
-2.17766e-10
8.37003e-10
-6.21726e-10
1.76152e-09
-9.26345e-10
2.86812e-09
-1.108e-09
4.04337e-09
-1.17694e-09
5.19203e-09
-1.15e-09
6.23626e-09
-1.04591e-09
7.11962e-09
-8.8467e-10
7.80299e-09
-6.84965e-10
8.26608e-09
-4.64316e-10
8.50128e-09
-2.36626e-10
8.51363e-09
-1.34704e-11
8.31454e-09
1.97873e-10
7.92153e-09
3.91975e-10
7.35331e-09
5.67194e-10
6.62963e-09
7.22695e-10
5.76829e-09
8.60403e-10
4.78545e-09
9.81843e-10
3.69415e-09
1.09044e-09
2.50459e-09
1.18849e-09
1.22435e-09
1.27937e-09
-1.41403e-10
1.36465e-09
-1.58905e-09
1.44672e-09
-3.11692e-09
1.52669e-09
-4.72488e-09
1.60699e-09
-6.41558e-09
1.68936e-09
-8.19324e-09
1.7765e-09
-1.00646e-08
1.86989e-09
-1.20373e-08
1.97153e-09
-1.41211e-08
2.08226e-09
-1.63257e-08
2.20338e-09
-1.86624e-08
2.33531e-09
-2.11425e-08
2.47889e-09
-2.37783e-08
2.63444e-09
-2.65821e-08
2.80259e-09
-2.9567e-08
2.98369e-09
-3.27467e-08
3.17843e-09
-3.61354e-08
3.38743e-09
-3.9748e-08
3.6113e-09
-4.36e-08
3.85089e-09
-4.77081e-08
4.10681e-09
-5.20893e-08
4.38009e-09
-5.67618e-08
4.67125e-09
-6.17443e-08
4.9816e-09
-6.7057e-08
5.31156e-09
-7.27205e-08
5.66281e-09
-7.87571e-08
6.03542e-09
-8.51885e-08
6.43102e-09
-9.20387e-08
6.84887e-09
-9.93299e-08
7.29076e-09
-1.07087e-07
7.75542e-09
-1.15333e-07
8.24493e-09
-1.24094e-07
8.75766e-09
-1.33391e-07
9.29654e-09
-1.43255e-07
9.85976e-09
-1.53706e-07
1.04491e-08
-1.64771e-07
1.1061e-08
-1.76472e-07
1.1698e-08
-1.88833e-07
1.23558e-08
-2.01872e-07
1.30361e-08
-2.15612e-07
1.3734e-08
-2.30067e-07
1.44513e-08
-2.45255e-07
1.51823e-08
-2.61186e-07
1.5928e-08
-2.77875e-07
1.66821e-08
-2.95323e-07
1.74453e-08
-3.1354e-07
1.82105e-08
-3.32521e-07
1.89782e-08
-3.52267e-07
1.97406e-08
-3.72767e-07
2.0498e-08
-3.94013e-07
2.12419e-08
-4.15986e-07
2.19729e-08
-4.38671e-07
2.26815e-08
-4.6204e-07
2.33687e-08
-4.86069e-07
2.40249e-08
-5.10722e-07
2.46514e-08
-5.35967e-07
2.52382e-08
-5.61756e-07
2.57872e-08
-5.8805e-07
2.62882e-08
-6.14795e-07
2.67435e-08
-6.41945e-07
2.71434e-08
-6.69437e-07
2.74918e-08
-6.9722e-07
2.7779e-08
-7.2523e-07
2.80089e-08
-7.5341e-07
2.81727e-08
-7.81689e-07
2.82757e-08
-8.10007e-07
2.83088e-08
-8.38278e-07
2.82728e-08
-8.66424e-07
2.81595e-08
-8.94366e-07
2.79772e-08
-9.22064e-07
2.7724e-08
-9.4945e-07
2.73969e-08
-9.76441e-07
2.69961e-08
-1.00296e-06
2.65198e-08
-1.02893e-06
2.59698e-08
-1.05427e-06
2.53447e-08
-1.07891e-06
2.46469e-08
-1.10279e-06
2.38751e-08
-1.12582e-06
2.30324e-08
-1.14794e-06
2.21176e-08
-1.16908e-06
2.11358e-08
-1.18918e-06
2.0083e-08
-1.20817e-06
1.89687e-08
-1.226e-06
1.77818e-08
-1.24257e-06
1.65399e-08
-1.25785e-06
1.5228e-08
-1.27174e-06
1.38683e-08
-1.28422e-06
1.24435e-08
-1.29521e-06
1.0976e-08
-1.30468e-06
9.44648e-09
-1.31257e-06
7.87887e-09
-1.31884e-06
6.25004e-09
-1.3234e-06
4.56519e-09
-1.3262e-06
2.78532e-09
-1.32714e-06
9.41661e-10
-1.32622e-06
-9.32572e-10
-1.32345e-06
-2.75792e-09
-1.31889e-06
-4.55991e-09
-1.31252e-06
-6.35083e-09
-1.30436e-06
-8.1503e-09
-1.29439e-06
-9.94553e-09
-1.28265e-06
-1.17479e-08
-1.26911e-06
-1.3543e-08
-1.25379e-06
-1.53359e-08
-1.23669e-06
-1.71085e-08
-1.21782e-06
-1.8869e-08
-1.1972e-06
-2.06041e-08
-1.17488e-06
-2.2319e-08
-1.15086e-06
-2.4001e-08
-1.1252e-06
-2.56517e-08
-1.09792e-06
-2.72619e-08
-1.06907e-06
-2.88307e-08
-1.03871e-06
-3.0352e-08
-1.00687e-06
-3.18202e-08
-9.7362e-07
-3.32327e-08
-9.39018e-07
-3.45859e-08
-9.03126e-07
-3.58793e-08
-8.66006e-07
-3.71072e-08
-8.27731e-07
-3.82699e-08
-7.88366e-07
-3.93613e-08
-7.4799e-07
-4.03784e-08
-7.06677e-07
-4.13134e-08
-6.64513e-07
-4.21639e-08
-6.21579e-07
-4.29322e-08
-5.7796e-07
-4.36173e-08
-5.33739e-07
-4.4216e-08
-4.89007e-07
-4.47287e-08
-4.43846e-07
-4.51537e-08
-3.9835e-07
-4.54905e-08
-3.52606e-07
-4.5735e-08
-3.06714e-07
-4.58835e-08
-2.60776e-07
-4.59264e-08
-2.14916e-07
-4.585e-08
-1.69273e-07
-4.56304e-08
-1.24024e-07
-4.52375e-08
-7.93758e-08
-4.46337e-08
-3.55548e-08
-4.38085e-08
7.27365e-09
-4.28134e-08
4.8836e-08
-4.15495e-08
8.89585e-08
-4.01074e-08
1.27645e-07
-3.86737e-08
1.64996e-07
-3.73361e-08
2.01083e-07
-3.60752e-08
2.35954e-07
-3.48562e-08
2.69621e-07
-3.36554e-08
3.02091e-07
-3.24571e-08
3.33354e-07
-3.12531e-08
3.63403e-07
-3.00374e-08
3.92215e-07
-2.88028e-08
4.19764e-07
-2.75388e-08
4.46002e-07
-2.62306e-08
4.70863e-07
-2.48529e-08
4.94233e-07
-2.3364e-08
5.15926e-07
-2.16858e-08
5.3562e-07
-1.96898e-08
5.52693e-07
-1.70676e-08
5.66116e-07
-1.34213e-08
5.72885e-07
-6.76621e-09
5.70634e-07
2.25174e-09
3.67554e-08
5.33878e-07
5.34194e-10
-7.542e-10
1.76817e-09
-1.85887e-09
3.43346e-09
-2.59616e-09
5.29874e-09
-2.97573e-09
7.15673e-09
-3.03943e-09
8.84419e-09
-2.83935e-09
1.02248e-08
-2.43115e-09
1.12088e-08
-1.87015e-09
1.17279e-08
-1.2086e-09
1.17552e-08
-4.92748e-10
1.12753e-08
2.38849e-10
1.03047e-08
9.56426e-10
8.85959e-09
1.63874e-09
6.97851e-09
2.27271e-09
4.68974e-09
2.85192e-09
2.03661e-09
3.37558e-09
-9.53514e-10
3.84666e-09
-4.24325e-09
4.2712e-09
-7.81316e-09
4.65664e-09
-1.16365e-08
5.01135e-09
-1.57042e-08
5.34349e-09
-2.00014e-08
5.66099e-09
-2.45287e-08
5.97068e-09
-2.92822e-08
6.27894e-09
-3.42704e-08
6.59178e-09
-3.9498e-08
6.91536e-09
-4.49802e-08
7.25525e-09
-5.07289e-08
7.61654e-09
-5.6764e-08
8.00329e-09
-6.31029e-08
8.41894e-09
-6.97686e-08
8.86602e-09
-7.67823e-08
9.34671e-09
-8.41689e-08
9.86268e-09
-9.19522e-08
1.04154e-08
-1.00159e-07
1.10063e-08
-1.08814e-07
1.16365e-08
-1.17945e-07
1.23074e-08
-1.27581e-07
1.30205e-08
-1.37749e-07
1.37774e-08
-1.4848e-07
1.45795e-08
-1.59804e-07
1.54283e-08
-1.71752e-07
1.63253e-08
-1.84354e-07
1.72719e-08
-1.97645e-07
1.82693e-08
-2.11654e-07
1.93191e-08
-2.26416e-07
2.04224e-08
-2.41961e-07
2.15805e-08
-2.58327e-07
2.27937e-08
-2.7554e-07
2.4062e-08
-2.93638e-07
2.53847e-08
-3.12644e-07
2.67613e-08
-3.32595e-07
2.81906e-08
-3.53511e-07
2.96718e-08
-3.75423e-07
3.12033e-08
-3.9835e-07
3.27842e-08
-4.22318e-07
3.44104e-08
-4.47338e-07
3.60766e-08
-4.73425e-07
3.77769e-08
-5.0058e-07
3.95064e-08
-5.28813e-07
4.12589e-08
-5.58113e-07
4.30287e-08
-5.8848e-07
4.48078e-08
-6.19892e-07
4.65893e-08
-6.52338e-07
4.83638e-08
-6.85785e-07
5.01232e-08
-7.20207e-07
5.18572e-08
-7.55559e-07
5.35571e-08
-7.91802e-07
5.52119e-08
-8.28877e-07
5.68124e-08
-8.66734e-07
5.83475e-08
-9.05301e-07
5.98079e-08
-9.44517e-07
6.11826e-08
-9.84297e-07
6.24628e-08
-1.02457e-06
6.36377e-08
-1.06525e-06
6.46997e-08
-1.10624e-06
6.56392e-08
-1.14746e-06
6.64502e-08
-1.1888e-06
6.71238e-08
-1.23017e-06
6.76545e-08
-1.27147e-06
6.8035e-08
-1.31259e-06
6.82626e-08
-1.35343e-06
6.83313e-08
-1.39389e-06
6.82395e-08
-1.43388e-06
6.79824e-08
-1.47327e-06
6.75606e-08
-1.51197e-06
6.69707e-08
-1.54988e-06
6.62132e-08
-1.5869e-06
6.52855e-08
-1.6229e-06
6.41909e-08
-1.65781e-06
6.2931e-08
-1.69156e-06
6.15059e-08
-1.72407e-06
5.99173e-08
-1.75523e-06
5.81659e-08
-1.78497e-06
5.62581e-08
-1.8132e-06
5.41948e-08
-1.83983e-06
5.19828e-08
-1.86481e-06
4.9623e-08
-1.88806e-06
4.71227e-08
-1.90951e-06
4.44832e-08
-1.92911e-06
4.1713e-08
-1.9468e-06
3.88133e-08
-1.96253e-06
3.57907e-08
-1.97626e-06
3.26478e-08
-1.98791e-06
2.93917e-08
-1.99746e-06
2.60291e-08
-2.00485e-06
2.25673e-08
-2.01004e-06
1.90132e-08
-2.013e-06
1.53708e-08
-2.0137e-06
1.16458e-08
-2.01211e-06
7.838e-09
-2.0082e-06
3.9495e-09
-2.00194e-06
-1.4598e-11
-1.99338e-06
-4.01758e-09
-1.98254e-06
-8.0481e-09
-1.9695e-06
-1.21075e-08
-1.95424e-06
-1.61906e-08
-1.93672e-06
-2.02874e-08
-1.91688e-06
-2.43855e-08
-1.89473e-06
-2.84753e-08
-1.8703e-06
-3.25584e-08
-1.84361e-06
-3.6628e-08
-1.81468e-06
-4.06814e-08
-1.78353e-06
-4.47062e-08
-1.75019e-06
-4.8694e-08
-1.71467e-06
-5.2631e-08
-1.67702e-06
-5.65123e-08
-1.63729e-06
-6.03263e-08
-1.59553e-06
-6.40683e-08
-1.55179e-06
-6.77273e-08
-1.50613e-06
-7.12967e-08
-1.4586e-06
-7.47651e-08
-1.40929e-06
-7.81256e-08
-1.35825e-06
-8.13681e-08
-1.30557e-06
-8.44829e-08
-1.25132e-06
-8.74615e-08
-1.19559e-06
-9.03001e-08
-1.13846e-06
-9.29928e-08
-1.08002e-06
-9.55353e-08
-1.02036e-06
-9.79195e-08
-9.59586e-07
-1.00137e-07
-8.97784e-07
-1.02183e-07
-8.35055e-07
-1.04042e-07
-7.71506e-07
-1.05712e-07
-7.07241e-07
-1.07194e-07
-6.4237e-07
-1.08484e-07
-5.77e-07
-1.0958e-07
-5.1124e-07
-1.10481e-07
-4.452e-07
-1.11185e-07
-3.78991e-07
-1.11689e-07
-3.12727e-07
-1.11986e-07
-2.46527e-07
-1.1207e-07
-1.80517e-07
-1.1192e-07
-1.14836e-07
-1.11515e-07
-4.96359e-08
-1.10812e-07
1.49041e-08
-1.09759e-07
7.85942e-08
-1.08303e-07
1.41231e-07
-1.06425e-07
2.02678e-07
-1.04238e-07
2.62958e-07
-1.01808e-07
3.22095e-07
-9.92212e-08
3.80066e-07
-9.6624e-08
4.36845e-07
-9.40914e-08
4.92416e-07
-9.16255e-08
5.46773e-07
-8.91896e-08
5.99893e-07
-8.67548e-08
6.51751e-07
-8.42939e-08
7.02312e-07
-8.17944e-08
7.51535e-07
-7.92406e-08
7.99368e-07
-7.66177e-08
8.45749e-07
-7.39006e-08
8.90591e-07
-7.10573e-08
9.33785e-07
-6.80298e-08
9.75161e-07
-6.47265e-08
1.01447e-06
-6.09828e-08
1.05131e-06
-5.65154e-08
1.08503e-06
-5.0772e-08
1.11435e-06
-4.27349e-08
1.13777e-06
-3.01786e-08
1.15007e-06
-1.00328e-08
3.82466e-08
1.14858e-06
5.94829e-10
-1.35127e-09
1.89242e-09
-3.15976e-09
3.52889e-09
-4.23711e-09
5.20624e-09
-4.65552e-09
6.67683e-09
-4.51423e-09
7.7581e-09
-3.92243e-09
8.31344e-09
-2.9905e-09
8.26392e-09
-1.82199e-09
7.56001e-09
-5.08598e-10
6.19364e-09
8.72661e-10
4.16841e-09
2.26038e-09
1.51537e-09
3.60881e-09
-1.73594e-09
4.88661e-09
-5.53896e-09
6.07525e-09
-9.857e-09
7.16679e-09
-1.46436e-08
8.16175e-09
-1.98669e-08
9.06695e-09
-2.54898e-08
9.89364e-09
-3.14917e-08
1.06557e-08
-3.78496e-08
1.13685e-08
-4.45561e-08
1.20473e-08
-5.16027e-08
1.27067e-08
-5.89943e-08
1.33597e-08
-6.67342e-08
1.40177e-08
-7.48359e-08
1.4691e-08
-8.33112e-08
1.53892e-08
-9.21791e-08
1.61207e-08
-1.01457e-07
1.68932e-08
-1.1117e-07
1.77133e-08
-1.21339e-07
1.85864e-08
-1.31992e-07
1.9517e-08
-1.43156e-07
2.05087e-08
-1.5486e-07
2.15645e-08
-1.67133e-07
2.26871e-08
-1.80008e-07
2.38786e-08
-1.93514e-07
2.51411e-08
-2.07685e-07
2.64766e-08
-2.22553e-07
2.78869e-08
-2.38152e-07
2.93738e-08
-2.54513e-07
3.09389e-08
-2.7167e-07
3.25838e-08
-2.89656e-07
3.43095e-08
-3.08503e-07
3.6117e-08
-3.28242e-07
3.80068e-08
-3.48903e-07
3.99791e-08
-3.70516e-07
4.20337e-08
-3.93106e-07
4.41701e-08
-4.16701e-07
4.63865e-08
-4.4132e-07
4.86804e-08
-4.66985e-07
5.10482e-08
-4.93711e-07
5.3486e-08
-5.21511e-07
5.59886e-08
-5.50391e-07
5.85503e-08
-5.80356e-07
6.11646e-08
-6.11397e-07
6.38242e-08
-6.43511e-07
6.65203e-08
-6.76681e-07
6.92429e-08
-7.10888e-07
7.1979e-08
-7.46102e-07
7.47168e-08
-7.82293e-07
7.74437e-08
-8.19416e-07
8.01468e-08
-8.57426e-07
8.28123e-08
-8.96267e-07
8.54257e-08
-9.35882e-07
8.7972e-08
-9.762e-07
9.04361e-08
-1.01715e-06
9.28026e-08
-1.05866e-06
9.50566e-08
-1.10063e-06
9.71828e-08
-1.14299e-06
9.91669e-08
-1.18564e-06
1.00995e-07
-1.22849e-06
1.02653e-07
-1.27144e-06
1.04129e-07
-1.31439e-06
1.05411e-07
-1.35724e-06
1.06488e-07
-1.39989e-06
1.07351e-07
-1.44225e-06
1.07992e-07
-1.4842e-06
1.08403e-07
-1.52566e-06
1.0858e-07
-1.56652e-06
1.08516e-07
-1.6067e-06
1.08208e-07
-1.64609e-06
1.07653e-07
-1.68461e-06
1.0685e-07
-1.72217e-06
1.05799e-07
-1.75869e-06
1.04498e-07
-1.79408e-06
1.0295e-07
-1.82828e-06
1.01157e-07
-1.86119e-06
9.91213e-08
-1.89275e-06
9.68463e-08
-1.92288e-06
9.43371e-08
-1.95151e-06
9.15989e-08
-1.97862e-06
8.86335e-08
-2.00414e-06
8.54443e-08
-2.02801e-06
8.20388e-08
-2.05018e-06
7.8422e-08
-2.07059e-06
7.46026e-08
-2.08919e-06
7.05855e-08
-2.10595e-06
6.6379e-08
-2.12082e-06
6.19881e-08
-2.13376e-06
5.74218e-08
-2.14474e-06
5.26857e-08
-2.15373e-06
4.77867e-08
-2.16069e-06
4.27314e-08
-2.1656e-06
3.75253e-08
-2.16843e-06
3.21804e-08
-2.16914e-06
2.67031e-08
-2.16772e-06
2.11075e-08
-2.16413e-06
1.5398e-08
-2.15837e-06
9.58531e-09
-2.15042e-06
3.67233e-09
-2.14027e-06
-2.32508e-09
-2.12794e-06
-8.3929e-09
-2.11344e-06
-1.45136e-08
-2.09679e-06
-2.06853e-08
-2.07794e-06
-2.68996e-08
-2.0569e-06
-3.31512e-08
-2.03366e-06
-3.94314e-08
-2.00821e-06
-4.57327e-08
-1.98055e-06
-5.2035e-08
-1.95069e-06
-5.83257e-08
-1.91863e-06
-6.45964e-08
-1.88442e-06
-7.08391e-08
-1.84807e-06
-7.70427e-08
-1.80959e-06
-8.31932e-08
-1.76902e-06
-8.92739e-08
-1.72638e-06
-9.52706e-08
-1.68172e-06
-1.0117e-07
-1.63509e-06
-1.06961e-07
-1.58652e-06
-1.1263e-07
-1.53607e-06
-1.18165e-07
-1.4838e-06
-1.23554e-07
-1.42977e-06
-1.28782e-07
-1.37405e-06
-1.33837e-07
-1.3167e-06
-1.38705e-07
-1.2578e-06
-1.43373e-07
-1.19742e-06
-1.47829e-07
-1.13564e-06
-1.52062e-07
-1.07256e-06
-1.56065e-07
-1.00826e-06
-1.59833e-07
-9.42821e-07
-1.63353e-07
-8.76344e-07
-1.66614e-07
-8.08922e-07
-1.69606e-07
-7.40651e-07
-1.72314e-07
-6.71631e-07
-1.74731e-07
-6.01969e-07
-1.76854e-07
-5.31769e-07
-1.78682e-07
-4.61137e-07
-1.80209e-07
-3.90179e-07
-1.81435e-07
-3.19002e-07
-1.82357e-07
-2.47716e-07
-1.8297e-07
-1.76431e-07
-1.83265e-07
-1.05261e-07
-1.83233e-07
-3.43236e-08
-1.82851e-07
3.62568e-08
-1.82088e-07
1.06348e-07
-1.80896e-07
1.75817e-07
-1.7922e-07
2.44538e-07
-1.77016e-07
3.1243e-07
-1.74311e-07
3.79502e-07
-1.71303e-07
4.45845e-07
-1.68144e-07
5.11449e-07
-1.64818e-07
5.76212e-07
-1.61381e-07
6.40027e-07
-1.57901e-07
7.02818e-07
-1.54411e-07
7.64533e-07
-1.50899e-07
8.25127e-07
-1.47344e-07
8.8456e-07
-1.43723e-07
9.42789e-07
-1.40018e-07
9.9976e-07
-1.36209e-07
1.05542e-06
-1.32271e-07
1.10969e-06
-1.2817e-07
1.16249e-06
-1.23855e-07
1.2137e-06
-1.19239e-07
1.26316e-06
-1.14185e-07
1.31063e-06
-1.08454e-07
1.35576e-06
-1.0164e-07
1.39799e-06
-9.30118e-08
1.43647e-06
-8.12089e-08
1.47022e-06
-6.39304e-08
1.4969e-06
-3.67243e-08
1.61307e-08
1.51902e-06
4.68497e-10
-1.8221e-09
1.39817e-09
-4.09264e-09
2.41438e-09
-5.25771e-09
3.21081e-09
-5.45431e-09
3.54691e-09
-4.85426e-09
3.26526e-09
-3.64237e-09
2.2691e-09
-1.99796e-09
5.24323e-10
-7.8312e-11
-1.9756e-09
1.98803e-09
-5.20477e-09
4.10105e-09
-9.13373e-09
6.18629e-09
-1.37169e-08
8.19139e-09
-1.89158e-08
1.00828e-08
-2.46836e-08
1.18426e-08
-3.0985e-08
1.34656e-08
-3.77803e-08
1.49566e-08
-4.50438e-08
1.6328e-08
-5.27479e-08
1.75972e-08
-6.08788e-08
1.87844e-08
-6.94226e-08
1.99116e-08
-7.83776e-08
2.10003e-08
-8.77423e-08
2.20706e-08
-9.75254e-08
2.31407e-08
-1.07735e-07
2.42265e-08
-1.18388e-07
2.53419e-08
-1.29499e-07
2.64992e-08
-1.4109e-07
2.77094e-08
-1.5318e-07
2.89821e-08
-1.65794e-07
3.03256e-08
-1.78956e-07
3.1747e-08
-1.92693e-07
3.32522e-08
-2.07031e-07
3.48459e-08
-2.22001e-07
3.65322e-08
-2.37629e-07
3.83143e-08
-2.53947e-07
4.01948e-08
-2.70983e-07
4.21761e-08
-2.88768e-07
4.42599e-08
-3.0733e-07
4.64477e-08
-3.26698e-07
4.87406e-08
-3.469e-07
5.11392e-08
-3.67962e-07
5.36439e-08
-3.89908e-07
5.62541e-08
-4.12761e-07
5.89688e-08
-4.36542e-07
6.17862e-08
-4.61267e-07
6.47035e-08
-4.86952e-07
6.77169e-08
-5.13605e-07
7.08222e-08
-5.41234e-07
7.40144e-08
-5.69841e-07
7.72871e-08
-5.99427e-07
8.06325e-08
-6.29983e-07
8.40414e-08
-6.61499e-07
8.75032e-08
-6.93956e-07
9.10062e-08
-7.27331e-07
9.45373e-08
-7.61591e-07
9.80832e-08
-7.96703e-07
1.01629e-07
-8.32622e-07
1.0516e-07
-8.69304e-07
1.08658e-07
-9.06693e-07
1.12103e-07
-9.44732e-07
1.15478e-07
-9.83355e-07
1.18766e-07
-1.02249e-06
1.21947e-07
-1.06207e-06
1.25002e-07
-1.10202e-06
1.27913e-07
-1.14225e-06
1.30661e-07
-1.18268e-06
1.33229e-07
-1.22323e-06
1.356e-07
-1.26381e-06
1.37756e-07
-1.30433e-06
1.39684e-07
-1.3447e-06
1.41368e-07
-1.38485e-06
1.42796e-07
-1.42467e-06
1.43956e-07
-1.4641e-06
1.44838e-07
-1.50305e-06
1.45433e-07
-1.54143e-06
1.45733e-07
-1.57917e-06
1.45733e-07
-1.6162e-06
1.45429e-07
-1.65244e-06
1.44816e-07
-1.68782e-06
1.43894e-07
-1.72227e-06
1.42659e-07
-1.75573e-06
1.41114e-07
-1.78814e-06
1.39259e-07
-1.81944e-06
1.37095e-07
-1.84956e-06
1.34625e-07
-1.87847e-06
1.31854e-07
-1.9061e-06
1.28785e-07
-1.93241e-06
1.25423e-07
-1.95734e-06
1.21775e-07
-1.98083e-06
1.17847e-07
-2.00286e-06
1.13644e-07
-2.02338e-06
1.09171e-07
-2.04236e-06
1.04433e-07
-2.05976e-06
9.94377e-08
-2.07553e-06
9.41929e-08
-2.08964e-06
8.87074e-08
-2.10205e-06
8.29885e-08
-2.11272e-06
7.70446e-08
-2.12161e-06
7.08834e-08
-2.12871e-06
6.45138e-08
-2.13398e-06
5.79433e-08
-2.13738e-06
5.11792e-08
-2.1389e-06
4.42303e-08
-2.13851e-06
3.7104e-08
-2.13618e-06
2.98146e-08
-2.13188e-06
2.23707e-08
-2.12558e-06
1.4788e-08
-2.11728e-06
7.07268e-09
-2.10695e-06
-7.6011e-10
-2.09459e-06
-8.70156e-09
-2.08019e-06
-1.67331e-08