/*--------------------------------*- C++ -*----------------------------------*\
| =========                 |                                                 |
| \\      /  F ield         | OpenFOAM: The Open Source CFD Toolbox           |
|  \\    /   O peration     | Version:  2412                                  |
|   \\  /    A nd           | Website:  www.openfoam.com                      |
|    \\/     M anipulation  |                                                 |
\*---------------------------------------------------------------------------*/
FoamFile
{
    version     2.0;
    format      ascii;
    arch        "LSB;label=32;scalar=64";
    class       volVectorField;
    location    "300";
    object      U;
}
// * * * * * * * * * * * * * * * * * * * * * * * * * * * * * * * * * * * * * //

dimensions      [0 1 -1 0 0 0 0];

internalField   nonuniform List<vector> 
12225
(
(7.55439 -0.136404 0)
(5.15609 0.100015 0)
(3.80857 0.0630955 0)
(2.99224 0.0248366 0)
(2.55802 0.0153243 0)
(2.29567 0.0124917 0)
(2.1016 0.0101706 0)
(1.95424 0.00779199 0)
(1.84451 0.00587984 0)
(1.76203 0.00452527 0)
(1.69908 0.00348789 0)
(1.6511 0.00258482 0)
(1.61545 0.00172548 0)
(1.59045 0.000860943 0)
(1.57597 -0.000274575 0)
(1.57083 -0.00176031 0)
(1.58347 -0.00579411 0)
(1.57724 -0.0973444 0)
(10.141 0.703656 0)
(9.34293 0.741766 0)
(8.00318 0.432199 0)
(6.75928 0.246037 0)
(5.90541 0.152312 0)
(5.34973 0.103952 0)
(4.9552 0.0781127 0)
(4.65645 0.0611542 0)
(4.42658 0.0482668 0)
(4.24831 0.0383295 0)
(4.10882 0.0305339 0)
(3.99951 0.023996 0)
(3.91495 0.0181103 0)
(3.85146 0.0123391 0)
(3.80804 0.00606167 0)
(3.78253 -0.00266312 0)
(3.78502 -0.0150572 0)
(3.78473 -0.0673682 0)
(10.2509 0.727585 0)
(10.6453 0.897889 0)
(10.3391 0.683311 0)
(9.60648 0.504077 0)
(8.85403 0.370856 0)
(8.22784 0.272123 0)
(7.72731 0.205469 0)
(7.32782 0.16043 0)
(7.00943 0.127923 0)
(6.75497 0.103299 0)
(6.55048 0.0839099 0)
(6.38597 0.0677923 0)
(6.2546 0.0535262 0)
(6.15158 0.0399495 0)
(6.07464 0.0256986 0)
(6.02078 0.00817486 0)
(5.99417 -0.0162426 0)
(5.96818 -0.0726865 0)
(10.116 0.494585 0)
(10.6781 0.749893 0)
(10.9715 0.695493 0)
(10.8771 0.612142 0)
(10.5819 0.52067 0)
(10.2217 0.427596 0)
(9.85538 0.348239 0)
(9.51186 0.285242 0)
(9.20632 0.235045 0)
(8.94261 0.194556 0)
(8.71834 0.161384 0)
(8.52953 0.133295 0)
(8.37235 0.108364 0)
(8.24362 0.0848949 0)
(8.14096 0.0610311 0)
(8.06132 0.0337945 0)
(8.00551 -0.000493444 0)
(7.94826 -0.0536357 0)
(10.0773 0.366875 0)
(10.5108 0.63465 0)
(10.8775 0.640181 0)
(11.0525 0.600134 0)
(11.0857 0.551332 0)
(11.0344 0.490936 0)
(10.9222 0.429507 0)
(10.7718 0.373459 0)
(10.6055 0.323362 0)
(10.4389 0.278816 0)
(10.2806 0.239289 0)
(10.135 0.203751 0)
(10.0047 0.170911 0)
(9.8907 0.13928 0)
(9.7935 0.107154 0)
(9.71123 0.0719639 0)
(9.64508 0.0316207 0)
(9.57412 -0.0194812 0)
(10.0681 0.288751 0)
(10.387 0.547941 0)
(10.6689 0.573794 0)
(10.87 0.546273 0)
(10.9958 0.516169 0)
(11.0828 0.478148 0)
(11.1296 0.435903 0)
(11.1384 0.394541 0)
(11.1186 0.355078 0)
(11.0802 0.317422 0)
(11.0304 0.281562 0)
(10.9746 0.247188 0)
(10.9171 0.213637 0)
(10.8607 0.17992 0)
(10.8077 0.144884 0)
(10.7575 0.106736 0)
(10.7117 0.0650928 0)
(10.6572 0.017129 0)
(10.0531 0.226341 0)
(10.287 0.470778 0)
(10.5137 0.508478 0)
(10.6859 0.491192 0)
(10.8058 0.469192 0)
(10.9086 0.440835 0)
(10.9942 0.407944 0)
(11.0596 0.375043 0)
(11.107 0.343404 0)
(11.1402 0.312642 0)
(11.1619 0.282421 0)
(11.1743 0.252405 0)
(11.1796 0.222044 0)
(11.1795 0.190592 0)
(11.1752 0.157276 0)
(11.1664 0.121049 0)
(11.1536 0.0824099 0)
(11.1308 0.0402867 0)
(10.0343 0.174574 0)
(10.2075 0.40328 0)
(10.4159 0.451493 0)
(10.5641 0.444708 0)
(10.6693 0.428091 0)
(10.7589 0.404702 0)
(10.8384 0.376259 0)
(10.9062 0.346998 0)
(10.9636 0.318719 0)
(11.0132 0.291226 0)
(11.0561 0.264085 0)
(11.0928 0.236913 0)
(11.1239 0.209205 0)
(11.1497 0.180349 0)
(11.1704 0.149814 0)
(11.1854 0.117086 0)
(11.1939 0.0828885 0)
(11.1942 0.0474089 0)
(10.0215 0.13669 0)
(10.1559 0.337121 0)
(10.3411 0.397186 0)
(10.4763 0.401832 0)
(10.5747 0.390863 0)
(10.6562 0.37184 0)
(10.728 0.347029 0)
(10.7898 0.320349 0)
(10.8434 0.293978 0)
(10.8911 0.268119 0)
(10.9342 0.242487 0)
(10.9731 0.216785 0)
(11.0079 0.19064 0)
(11.0387 0.163617 0)
(11.0652 0.135397 0)
(11.0867 0.105833 0)
(11.1024 0.0755899 0)
(11.1122 0.0454686 0)
(10.0148 0.109846 0)
(10.1195 0.278988 0)
(10.2753 0.344239 0)
(10.4006 0.357864 0)
(10.4962 0.352953 0)
(10.5748 0.338722 0)
(10.6435 0.317855 0)
(10.7025 0.294032 0)
(10.7536 0.269651 0)
(10.7988 0.245312 0)
(10.8397 0.220961 0)
(10.8767 0.196448 0)
(10.9101 0.171566 0)
(10.9398 0.146069 0)
(10.9657 0.119826 0)
(10.9873 0.0929066 0)
(11.004 0.0658764 0)
(11.0164 0.0396229 0)
(10.0102 0.0875605 0)
(10.0912 0.226931 0)
(10.218 0.293005 0)
(10.3314 0.312712 0)
(10.4233 0.313109 0)
(10.5005 0.303503 0)
(10.5682 0.286755 0)
(10.6268 0.266161 0)
(10.6775 0.244148 0)
(10.7222 0.221632 0)
(10.7622 0.198801 0)
(10.7981 0.175664 0)
(10.8302 0.152188 0)
(10.8587 0.128283 0)
(10.8835 0.103974 0)
(10.9044 0.0794338 0)
(10.921 0.0551489 0)
(10.9342 0.031858 0)
(10.0076 0.0702204 0)
(10.0715 0.186094 0)
(10.175 0.249164 0)
(10.276 0.271831 0)
(10.3622 0.275659 0)
(10.4367 0.269461 0)
(10.503 0.25612 0)
(10.5614 0.238481 0)
(10.6124 0.218843 0)
(10.6573 0.198261 0)
(10.6973 0.177095 0)
(10.7331 0.15549 0)
(10.765 0.133532 0)
(10.793 0.111265 0)
(10.8174 0.0888042 0)
(10.8381 0.0663733 0)
(10.8549 0.0443788 0)
(10.8686 0.023417 0)
(10.0059 0.0560494 0)
(10.0561 0.15151 0)
(10.1404 0.209089 0)
(10.229 0.232721 0)
(10.3083 0.238755 0)
(10.3787 0.235049 0)
(10.4425 0.224465 0)
(10.4997 0.209471 0)
(10.5504 0.192134 0)
(10.5954 0.173545 0)
(10.6356 0.154175 0)
(10.6715 0.134259 0)
(10.7034 0.113974 0)
(10.7314 0.0934581 0)
(10.7558 0.0728844 0)
(10.7766 0.0524976 0)
(10.7938 0.0326375 0)
(10.8083 0.0137862 0)
(10.0045 0.0432188 0)
(10.0431 0.118479 0)
(10.1103 0.167779 0)
(10.1859 0.190415 0)
(10.2569 0.197517 0)
(10.3218 0.19557 0)
(10.3816 0.187315 0)
(10.4362 0.174808 0)
(10.4854 0.159823 0)
(10.5296 0.143415 0)
(10.5693 0.126123 0)
(10.6049 0.108234 0)
(10.6366 0.0899929 0)
(10.6647 0.0715788 0)
(10.6892 0.0532106 0)
(10.7103 0.0351191 0)
(10.7281 0.0175788 0)
(10.7434 0.000978147 0)
(10.0034 0.031515 0)
(10.0327 0.0873317 0)
(10.0855 0.126269 0)
(10.1486 0.145812 0)
(10.2111 0.152617 0)
(10.2697 0.151545 0)
(10.3247 0.145009 0)
(10.3757 0.134654 0)
(10.4224 0.121896 0)
(10.4647 0.107703 0)
(10.5031 0.0926131 0)
(10.5377 0.0769631 0)
(10.5687 0.0609991 0)
(10.5962 0.0449455 0)
(10.6205 0.0290034 0)
(10.6418 0.0133926 0)
(10.6601 -0.00169495 0)
(10.6761 -0.015936 0)
(10.0026 0.0207987 0)
(10.0249 0.0580558 0)
(10.0663 0.0851393 0)
(10.1186 0.0994378 0)
(10.1729 0.104374 0)
(10.2255 0.103147 0)
(10.2757 0.0976048 0)
(10.3228 0.0889731 0)
(10.3666 0.0782719 0)
(10.4067 0.0662837 0)
(10.4432 0.0534933 0)
(10.4763 0.0402259 0)
(10.5061 0.0267201 0)
(10.5328 0.0131911 0)
(10.5565 -0.000182255 0)
(10.5775 -0.0132204 0)
(10.5959 -0.0257893 0)
(10.6122 -0.0376359 0)
(10.0021 0.010806 0)
(10.0196 0.0301435 0)
(10.0529 0.0442424 0)
(10.0967 0.0512486 0)
(10.1442 0.0526359 0)
(10.1917 0.0500775 0)
(10.2376 0.0447127 0)
(10.2814 0.0372774 0)
(10.3224 0.0284072 0)
(10.3604 0.0185986 0)
(10.3951 0.00821541 0)
(10.4268 -0.00250573 0)
(10.4554 -0.0133608 0)
(10.4812 -0.0241955 0)
(10.5044 -0.0348587 0)
(10.525 -0.0452306 0)
(10.5433 -0.055215 0)
(10.5597 -0.0646269 0)
(10.0017 0.000936339 0)
(10.0166 0.00217475 0)
(10.0455 0.00209743 0)
(10.0844 -5.58895e-05 0)
(10.1276 -0.00389766 0)
(10.1716 -0.0090046 0)
(10.2147 -0.0150646 0)
(10.2561 -0.0218582 0)
(10.2952 -0.0291793 0)
(10.3316 -0.0368527 0)
(10.365 -0.0447392 0)
(10.3956 -0.0527322 0)
(10.4235 -0.0607343 0)
(10.4486 -0.0686584 0)
(10.4714 -0.0764228 0)
(10.4918 -0.0839531 0)
(10.5101 -0.0912006 0)
(10.5265 -0.0980231 0)
(10.0017 -0.0101165 0)
(10.0166 -0.0291764 0)
(10.0456 -0.0454137 0)
(10.0846 -0.0583772 0)
(10.1279 -0.0686272 0)
(10.1717 -0.0770531 0)
(10.2145 -0.0842654 0)
(10.2556 -0.0906422 0)
(10.2943 -0.0964331 0)
(10.3303 -0.101858 0)
(10.3634 -0.107046 0)
(10.3937 -0.112082 0)
(10.4213 -0.11699 0)
(10.4464 -0.121782 0)
(10.4691 -0.126446 0)
(10.4897 -0.130964 0)
(10.5082 -0.135321 0)
(10.5249 -0.139423 0)
(10.0022 -0.0219014 0)
(10.0211 -0.0624882 0)
(10.0569 -0.0952192 0)
(10.1032 -0.118425 0)
(10.1523 -0.134212 0)
(10.2004 -0.145149 0)
(10.2464 -0.152852 0)
(10.2899 -0.158248 0)
(10.3304 -0.162094 0)
(10.3676 -0.164982 0)
(10.4016 -0.167335 0)
(10.4325 -0.169379 0)
(10.4606 -0.171266 0)
(10.4861 -0.173071 0)
(10.5091 -0.174847 0)
(10.5299 -0.176602 0)
(10.5488 -0.178349 0)
(10.5657 -0.180016 0)
(10.003 -0.0345029 0)
(10.0288 -0.0973156 0)
(10.0763 -0.145073 0)
(10.1345 -0.175552 0)
(10.1927 -0.194082 0)
(10.2471 -0.205491 0)
(10.2978 -0.212244 0)
(10.3449 -0.215677 0)
(10.3879 -0.216989 0)
(10.4268 -0.217112 0)
(10.4619 -0.216641 0)
(10.4935 -0.215893 0)
(10.5219 -0.215076 0)
(10.5476 -0.214303 0)
(10.5707 -0.213646 0)
(10.5915 -0.213119 0)
(10.6103 -0.212736 0)
(10.6271 -0.212433 0)
(10.0044 -0.0502623 0)
(10.0419 -0.139527 0)
(10.1084 -0.201636 0)
(10.1835 -0.236361 0)
(10.253 -0.254918 0)
(10.3147 -0.264852 0)
(10.3706 -0.269057 0)
(10.4212 -0.269288 0)
(10.4663 -0.267202 0)
(10.5062 -0.26403 0)
(10.5416 -0.260421 0)
(10.5732 -0.256745 0)
(10.6014 -0.253208 0)
(10.6266 -0.249952 0)
(10.6493 -0.247016 0)
(10.6697 -0.244418 0)
(10.6882 -0.242133 0)
(10.7047 -0.240094 0)
(10.007 -0.0710645 0)
(10.0629 -0.193447 0)
(10.1577 -0.267018 0)
(10.2532 -0.301453 0)
(10.3339 -0.316765 0)
(10.4014 -0.322828 0)
(10.4609 -0.322462 0)
(10.5136 -0.317992 0)
(10.5595 -0.311657 0)
(10.5997 -0.30479 0)
(10.6353 -0.297965 0)
(10.6669 -0.291464 0)
(10.6953 -0.285459 0)
(10.7207 -0.280039 0)
(10.7437 -0.275207 0)
(10.7645 -0.270926 0)
(10.7835 -0.267139 0)
(10.8005 -0.26372 0)
(10.0121 -0.0993237 0)
(10.0955 -0.262559 0)
(10.2282 -0.339577 0)
(10.3431 -0.366332 0)
(10.4317 -0.374632 0)
(10.5039 -0.375131 0)
(10.5678 -0.369566 0)
(10.6244 -0.360469 0)
(10.6738 -0.350356 0)
(10.7172 -0.340407 0)
(10.756 -0.330994 0)
(10.7907 -0.322288 0)
(10.8219 -0.314399 0)
(10.8497 -0.30734 0)
(10.8747 -0.301068 0)
(10.8971 -0.295512 0)
(10.9173 -0.290579 0)
(10.935 -0.286181 0)
(10.0234 -0.138868 0)
(10.1481 -0.34614 0)
(10.3212 -0.41829 0)
(10.4579 -0.431858 0)
(10.5584 -0.431222 0)
(10.6431 -0.425375 0)
(10.7204 -0.414841 0)
(10.7885 -0.402083 0)
(10.8467 -0.389188 0)
(10.8959 -0.376805 0)
(10.9374 -0.365091 0)
(10.9717 -0.354172 0)
(10.9994 -0.344133 0)
(11.0211 -0.334971 0)
(11.0376 -0.326628 0)
(11.0495 -0.319083 0)
(11.0573 -0.312195 0)
(11.0617 -0.306204 0)
(10.0337 -0.192181 0)
(10.2295 -0.429602 0)
(10.4567 -0.495558 0)
(10.6381 -0.502569 0)
(10.7661 -0.497886 0)
(10.8682 -0.486105 0)
(10.9482 -0.469002 0)
(11.003 -0.450066 0)
(11.0335 -0.430885 0)
(11.0437 -0.411819 0)
(11.0376 -0.393247 0)
(11.0184 -0.375582 0)
(10.9889 -0.359077 0)
(10.9516 -0.343809 0)
(10.9084 -0.329756 0)
(10.8612 -0.316948 0)
(10.8107 -0.305197 0)
(10.7596 -0.294969 0)
(10.0419 -0.278526 0)
(10.3626 -0.527719 0)
(10.6908 -0.574424 0)
(10.8935 -0.576412 0)
(10.9697 -0.564308 0)
(10.9641 -0.535014 0)
(10.8993 -0.496661 0)
(10.7909 -0.457206 0)
(10.6547 -0.419463 0)
(10.5038 -0.384301 0)
(10.3467 -0.352325 0)
(10.1892 -0.323854 0)
(10.0347 -0.298776 0)
(9.88558 -0.276822 0)
(9.74292 -0.257642 0)
(9.60761 -0.240917 0)
(9.47902 -0.226284 0)
(9.35994 -0.213744 0)
(10.1273 -0.496487 0)
(10.627 -0.7748 0)
(10.8229 -0.719951 0)
(10.6708 -0.629507 0)
(10.3295 -0.544911 0)
(9.93006 -0.462351 0)
(9.52847 -0.389451 0)
(9.14815 -0.329873 0)
(8.80071 -0.281856 0)
(8.48969 -0.243161 0)
(8.21363 -0.212095 0)
(7.96901 -0.187199 0)
(7.75205 -0.167145 0)
(7.55909 -0.150833 0)
(7.38684 -0.137453 0)
(7.23257 -0.126347 0)
(7.09298 -0.117106 0)
(6.96913 -0.109143 0)
(10.3186 -0.620424 0)
(10.2355 -0.833922 0)
(9.47922 -0.619368 0)
(8.5003 -0.417159 0)
(7.63815 -0.286805 0)
(6.96889 -0.204895 0)
(6.45191 -0.155677 0)
(6.04218 -0.125493 0)
(5.71107 -0.104771 0)
(5.43932 -0.0893255 0)
(5.21259 -0.0775382 0)
(5.0204 -0.0684186 0)
(4.85548 -0.061211 0)
(4.71243 -0.0554037 0)
(4.58714 -0.0506677 0)
(4.47663 -0.0467019 0)
(4.37783 -0.0434517 0)
(4.29117 -0.0403401 0)
(8.3691 0.165493 0)
(6.361 -0.106403 0)
(5.00659 -0.109625 0)
(4.06549 -0.0533436 0)
(3.50563 -0.0260043 0)
(3.15607 -0.0188544 0)
(2.89353 -0.0176288 0)
(2.67969 -0.0165401 0)
(2.50553 -0.0146747 0)
(2.36352 -0.0126839 0)
(2.24619 -0.0109828 0)
(2.14781 -0.0096076 0)
(2.06431 -0.00849464 0)
(1.9926 -0.00758799 0)
(1.93033 -0.00685874 0)
(1.87583 -0.00621947 0)
(1.82733 -0.00578221 0)
(1.78524 -0.00520174 0)
(4.28898e-05 -9.15671e-05 -3.63528e-20)
(0.000417361 -0.00028583 4.91001e-20)
(0.00110619 -0.000443355 0)
(0.00202944 -0.000545784 0)
(0.00306545 -0.000596474 0)
(0.00411649 -0.000602771 -4.90148e-20)
(0.00510582 -0.000573907 0)
(0.00597419 -0.000520247 0)
(0.00667929 -0.000451214 0)
(0.00719494 -0.000375285 0)
(0.00750908 -0.000298677 4.92187e-20)
(0.00762097 -0.000226305 0)
(0.00753821 -0.00016086 0)
(0.00727408 -0.000104097 0)
(0.00684491 -5.5958e-05 0)
(0.00626796 -1.62224e-05 4.98027e-20)
(0.00556003 1.65612e-05 0)
(0.00473622 4.33399e-05 0)
(0.00380948 6.57213e-05 0)
(0.00279001 8.43232e-05 0)
(0.0016856 0.000100014 0)
(0.000501703 0.000112407 0)
(-0.000757943 0.000121898 0)
(-0.00209105 0.000129045 5.08115e-20)
(-0.00349689 0.000135392 -5.07873e-20)
(-0.00497676 0.00014175 5.07518e-20)
(-0.00653393 0.000149341 5.07073e-20)
(-0.0081735 0.000158631 0)
(-0.00990219 0.000170397 0)
(-0.011728 0.000184744 -5.05252e-20)
(-0.0136599 0.000202129 -5.04479e-20)
(-0.0157076 0.0002225 0)
(-0.0178815 0.000246163 0)
(-0.0201924 0.000273068 -5.01611e-20)
(-0.0226518 0.000303505 0)
(-0.0252714 0.000337451 0)
(-0.0280635 0.000375191 4.97808e-20)
(-0.031041 0.00041679 0)
(-0.0342174 0.000462583 4.94693e-20)
(-0.037607 0.000512795 9.85895e-20)
(-0.0412245 0.000567811 0)
(-0.0450858 0.000627958 0)
(-0.0492073 0.000693613 0)
(-0.0536061 0.000765252 0)
(-0.0583006 0.000843249 0)
(-0.0633097 0.00092831 9.59207e-20)
(-0.0686537 0.00102071 9.53732e-20)
(-0.0743534 0.00112118 9.47944e-20)
(-0.0804301 0.00122961 0)
(-0.0869058 0.00134679 -9.3542e-20)
(-0.0938029 0.00147233 0)
(-0.101144 0.00160707 9.21609e-20)
(-0.108952 0.00175024 9.1422e-20)
(-0.117251 0.00190293 0)
(-0.126064 0.0020645 0)
(-0.135416 0.00223642 0)
(-0.14533 0.0024185 8.81536e-20)
(-0.155831 0.00261228 0)
(-0.166939 0.00281622 0)
(-0.178676 0.00303141 0)
(-0.191063 0.00325616 0)
(-0.204118 0.00349175 0)
(-0.217857 0.00373621 0)
(-0.232295 0.00399059 0)
(-0.247444 0.00425269 0)
(-0.263316 0.00452352 -7.91187e-20)
(-0.279915 0.00480048 0)
(-0.297248 0.00508449 0)
(-0.315313 0.00537261 7.56928e-20)
(-0.334108 0.00566572 7.4517e-20)
(-0.353626 0.00596055 0)
(-0.373858 0.00625801 -7.21236e-20)
(-0.394789 0.00655434 7.09084e-20)
(-0.416401 0.00685058 0)
(-0.438672 0.0071428 -6.84473e-20)
(-0.461577 0.00743178 0)
(-0.485087 0.00771315 0)
(-0.509165 0.0079879 6.46924e-20)
(-0.533773 0.00825167 0)
(-0.558869 0.00850563 -6.21557e-20)
(-0.58441 0.0087456 0)
(-0.610344 0.00897354 5.95955e-20)
(-0.636622 0.00918518 5.83066e-20)
(-0.66319 0.00938229 5.70116e-20)
(-0.689994 0.00956095 1.1142e-19)
(-0.716976 0.00972369 -1.08802e-19)
(-0.744075 0.00986571 0)
(-0.771224 0.00998631 0)
(-0.798343 0.0100814 0)
(-0.82536 0.0101553 -9.81584e-20)
(-0.852223 0.0102067 -9.54463e-20)
(-0.878882 0.0102344 9.27089e-20)
(-0.905263 0.0102378 0)
(-0.931292 0.0102158 -8.71476e-20)
(-0.956893 0.0101684 -8.43185e-20)
(-0.981995 0.010095 -8.14532e-20)
(-1.00653 0.00999579 0)
(-1.03042 0.00987022 0)
(-1.05361 0.00971905 0)
(-1.07601 0.00954165 -6.95714e-20)
(-1.09758 0.00933966 0)
(-1.11823 0.00911137 0)
(-1.13792 0.00885983 6.01296e-20)
(-1.15658 0.00858073 0)
(-1.17413 0.00828058 0)
(-1.19051 0.00795356 5.01327e-20)
(-1.20566 0.00760846 0)
(-1.21951 0.00723869 0)
(-1.23202 0.00685265 -3.94887e-20)
(-1.24313 0.00644132 -3.57813e-20)
(-1.25278 0.00600935 0)
(-1.26093 0.0055405 2.81071e-20)
(-1.26752 0.00503037 0)
(-1.27248 0.00446748 -2.00639e-20)
(-1.27572 0.00387936 0)
(-1.27715 0.00329467 -1.16259e-20)
(-1.2768 0.00273988 -7.24798e-21)
(-1.27473 0.00219692 0)
(-1.27092 0.00165226 0)
(-1.26538 0.00109651 0)
(-1.25809 0.000541609 0)
(-1.24907 -2.01043e-05 0)
(-1.2383 -0.000586821 0)
(-1.22577 -0.00115824 0)
(-1.21149 -0.00172931 3.18356e-20)
(-1.19546 -0.00230388 -3.72683e-20)
(-1.17769 -0.00287878 0)
(-1.1582 -0.00345592 0)
(-1.137 -0.00403089 0)
(-1.11413 -0.00460456 0)
(-1.08962 -0.00517424 -1.32779e-19)
(-1.06348 -0.00574003 0)
(-1.03577 -0.0063 1.57938e-19)
(-1.00653 -0.00685235 -1.70919e-19)
(-0.975798 -0.00739649 0)
(-0.94363 -0.00793127 0)
(-0.910079 -0.00845688 0)
(-0.8752 -0.00897155 2.25465e-19)
(-0.839054 -0.00947527 2.39736e-19)
(-0.801702 -0.00996489 0)
(-0.763208 -0.0104383 2.69004e-19)
(-0.723645 -0.0108934 2.83982e-19)
(-0.683086 -0.0113287 -2.99177e-19)
(-0.641609 -0.0117452 0)
(-0.599291 -0.0121414 0)
(-0.556211 -0.0125154 -3.45905e-19)
(-0.512453 -0.012867 0)
(-0.468097 -0.0131945 0)
(-0.423228 -0.0134971 0)
(-0.377933 -0.0137721 0)
(-0.332302 -0.0140172 4.26542e-19)
(-0.286434 -0.0142271 4.42879e-19)
(-0.240439 -0.0143953 0)
(-0.194445 -0.014511 4.75537e-19)
(-0.148613 -0.0145655 0)
(-0.103138 -0.014549 0)
(-0.0582092 -0.0144202 5.24073e-19)
(-0.0139238 -0.0140834 0)
(0.0290901 -0.0133575 5.44663e-19)
(0.0708573 -0.0124539 0)
(0.111315 -0.0115947 0)
(0.150528 -0.0108174 5.42443e-19)
(0.188543 -0.0101039 0)
(0.225418 -0.0094357 5.41208e-19)
(0.261178 -0.00880192 0)
(0.295831 -0.00819568 0)
(0.329367 -0.00761373 0)
(0.361775 -0.00705388 -5.38078e-19)
(0.393034 -0.00651374 0)
(0.423114 -0.00599013 5.36248e-19)
(0.451973 -0.00547911 0)
(0.479549 -0.00497418 0)
(0.505746 -0.00446516 0)
(0.530403 -0.00393216 0)
(0.553281 -0.00334689 0)
(0.573816 -0.00261808 0)
(0.591598 -0.00171062 0)
(0.602682 0.000209346 -1.0663e-18)
(0.614867 0.00183826 0)
(0.571074 0.0133043 0)
(0.000112612 -0.000863595 1.15931e-19)
(0.000934214 -0.00221232 -1.59993e-19)
(0.00224206 -0.00316427 0)
(0.00385442 -0.00370327 1.04952e-19)
(0.00555081 -0.00386941 0)
(0.0071599 -0.00372304 5.15224e-20)
(0.0085497 -0.00333044 -1.02231e-19)
(0.00962062 -0.00275895 -1.01549e-19)
(0.0103028 -0.0020717 0)
(0.0105543 -0.00132522 -1.00525e-19)
(0.010357 -0.000565408 -5.00687e-20)
(0.00971167 0.000172037 0)
(0.00863373 0.00086339 0)
(0.00714775 0.0014936 0)
(0.0052838 0.00205686 0)
(0.00307386 0.00255262 -4.93306e-20)
(0.00054939 0.00298593 0)
(-0.00226079 0.00336358 9.78044e-20)
(-0.00533158 0.00369507 0)
(-0.00864277 0.00398923 0)
(-0.0121787 0.00425559 -9.56446e-20)
(-0.0159289 0.00450154 0)
(-0.0198874 0.00473383 9.43865e-20)
(-0.0240534 0.0049575 -4.69354e-20)
(-0.0284294 0.00517898 4.66774e-20)
(-0.033022 0.00540434 -4.64258e-20)
(-0.0378405 0.00564005 -4.61738e-20)
(-0.0428975 0.005891 0)
(-0.0482078 0.00616147 0)
(-0.0537889 0.00645421 4.53774e-20)
(-0.0596594 0.00677144 -4.50445e-20)
(-0.0658399 0.00711445 0)
(-0.0723516 0.00748426 0)
(-0.0792173 0.00788153 4.41697e-20)
(-0.0864602 0.00830665 0)
(-0.0941046 0.00876037 0)
(-0.102175 0.00924345 -4.31362e-20)
(-0.110698 0.00975698 0)
(-0.119699 0.0103016 4.23167e-20)
(-0.129206 0.0108785 -8.39772e-20)
(-0.139247 0.0114883 0)
(-0.149851 0.0121324 0)
(-0.161047 0.0128112 -1.62753e-19)
(-0.172865 0.0135263 -1.60966e-19)
(-0.185336 0.0142781 -1.59129e-19)
(-0.198491 0.0150682 7.85353e-20)
(-0.21236 0.0158967 -7.77455e-20)
(-0.226976 0.0167648 -2.30095e-19)
(-0.242369 0.0176712 1.51315e-19)
(-0.25857 0.0186169 7.4724e-20)
(-0.27561 0.0196 0)
(-0.293517 0.0206214 -7.26086e-20)
(-0.312319 0.02168 7.13151e-20)
(-0.332041 0.0227779 0)
(-0.35271 0.0239135 0)
(-0.374347 0.0250835 0)
(-0.396973 0.0262803 -6.70701e-20)
(-0.4206 0.0275036 0)
(-0.445241 0.0287478 1.29361e-19)
(-0.4709 0.0300109 0)
(-0.497581 0.0312865 1.24775e-19)
(-0.525282 0.0325714 0)
(-0.553995 0.0338581 -1.20185e-19)
(-0.583708 0.0351424 0)
(-0.614403 0.0364158 1.1562e-19)
(-0.646055 0.0376735 -5.65631e-20)
(-0.678636 0.0389066 0)
(-0.712108 0.0401096 -1.08874e-19)
(-0.74643 0.0412733 -5.34412e-20)
(-0.781552 0.0423921 -5.23443e-20)
(-0.817423 0.0434567 0)
(-0.853981 0.0444615 -4.99785e-20)
(-0.891163 0.0453974 -4.91252e-20)
(-0.928898 0.0462593 0)
(-0.967114 0.047039 4.70422e-20)
(-1.00573 0.0477326 -9.18549e-20)
(-1.04467 0.0483331 0)
(-1.08383 0.0488372 -4.40109e-20)
(-1.12314 0.0492378 0)
(-1.1625 0.0495331 1.25992e-19)
(-1.20182 0.0497185 0)
(-1.241 0.0497936 -1.20246e-19)
(-1.27995 0.0497545 -3.91824e-20)
(-1.31856 0.0496017 3.81163e-20)
(-1.35676 0.0493334 7.438e-20)
(-1.39443 0.0489512 -7.25368e-20)
(-1.43149 0.0484527 0)
(-1.46783 0.0478383 0)
(-1.50334 0.0471091 0)
(-1.53794 0.0462716 1.95921e-19)
(-1.57156 0.0453265 6.3505e-20)
(-1.60413 0.0442748 -6.16443e-20)
(-1.63555 0.0431189 0)
(-1.66573 0.0418631 -5.78022e-20)
(-1.6946 0.0405105 5.59879e-20)
(-1.72207 0.039066 5.40682e-20)
(-1.74808 0.0375325 0)
(-1.77254 0.0359152 0)
(-1.7954 0.0342175 0)
(-1.8166 0.032445 4.6145e-20)
(-1.83606 0.0306018 0)
(-1.85374 0.0286913 -8.40655e-20)
(-1.86959 0.0267191 -1.19707e-19)
(-1.88355 0.0246862 7.55229e-20)
(-1.89557 0.0226034 0)
(-1.90559 0.02047 3.33997e-20)
(-1.91357 0.0182987 0)
(-1.91947 0.0160853 5.74134e-20)
(-1.92325 0.0138402 -2.64356e-20)
(-1.92489 0.0115561 -2.40164e-20)
(-1.92434 0.00924369 0)
(-1.92156 0.00690013 -5.6478e-20)
(-1.91653 0.0045478 3.25408e-20)
(-1.90933 0.00217966 1.3443e-20)
(-1.89997 -0.000191771 0)
(-1.88851 -0.00255568 7.95489e-21)
(-1.87487 -0.00488158 1.58148e-20)
(-1.859 -0.00717109 0)
(-1.84087 -0.00942363 -8.67063e-22)
(-1.8205 -0.0116486 -6.79619e-21)
(-1.79789 -0.0138424 -1.28271e-20)
(-1.77307 -0.0160074 0)
(-1.74605 -0.0181332 0)
(-1.71682 -0.0202196 0)
(-1.68542 -0.0222554 1.86529e-20)
(-1.65186 -0.0242425 2.25764e-20)
(-1.61617 -0.0261717 0)
(-1.57841 -0.0280444 5.77819e-20)
(-1.5386 -0.0298531 6.45579e-20)
(-1.4968 -0.0315974 0)
(-1.45305 -0.0332708 7.91502e-20)
(-1.40741 -0.0348722 1.70624e-19)
(-1.35994 -0.0363965 -9.32251e-20)
(-1.3107 -0.0378398 -9.85352e-20)
(-1.25975 -0.0392003 0)
(-1.20718 -0.0404767 0)
(-1.15306 -0.0416682 0)
(-1.09746 -0.042773 -1.29087e-19)
(-1.04047 -0.0437899 1.34262e-19)
(-0.982164 -0.0447158 2.84924e-19)
(-0.922644 -0.045549 -1.50685e-19)
(-0.861992 -0.0462846 1.55688e-19)
(-0.800308 -0.0469219 1.64946e-19)
(-0.737686 -0.0474648 0)
(-0.674231 -0.0479129 0)
(-0.610043 -0.0482657 -1.83615e-19)
(-0.545226 -0.0485252 0)
(-0.479885 -0.0486913 0)
(-0.414125 -0.048765 4.09573e-19)
(-0.348056 -0.0487438 0)
(-0.281791 -0.0486255 2.16379e-19)
(-0.21545 -0.0484022 -2.24817e-19)
(-0.149162 -0.0480639 0)
(-0.0830735 -0.0475903 2.34375e-19)
(-0.0173529 -0.0469526 0)
(0.0478163 -0.0461181 0)
(0.11225 -0.045097 -2.41878e-19)
(0.175767 -0.0439916 4.80992e-19)
(0.238167 -0.0427128 -2.43177e-19)
(0.29963 -0.0412463 0)
(0.360142 -0.0397523 0)
(0.419665 -0.038317 2.5126e-19)
(0.478162 -0.0369501 0)
(0.535621 -0.0356298 2.58129e-19)
(0.592027 -0.0343387 0)
(0.647352 -0.0330628 0)
(0.701561 -0.0317951 0)
(0.75461 -0.0305296 2.72193e-19)
(0.806449 -0.0292604 0)
(0.857014 -0.0279779 -2.77792e-19)
(0.906225 -0.0266701 0)
(0.953977 -0.0253156 0)
(1.00013 -0.0238803 5.70009e-19)
(1.04445 -0.0223023 -5.75079e-19)
(1.08664 -0.0204748 0)
(1.12604 -0.0181848 0)
(1.16223 -0.0150305 0)
(1.19133 -0.0100902 1.79312e-18)
(1.221 -0.00229888 0)
(1.20556 0.0183401 -1.23196e-18)
(0.000127778 -0.00201553 -1.48549e-23)
(0.00102891 -0.00480002 2.12538e-19)
(0.00236581 -0.00653905 0)
(0.00389401 -0.00732873 -2.06606e-19)
(0.00534231 -0.00731185 0)
(0.00651228 -0.00664395 0)
(0.00726441 -0.00548132 1.34342e-23)
(0.00750526 -0.00397236 9.44319e-20)
(0.00717906 -0.00225132 9.26041e-20)
(0.00626099 -0.00043318 9.09855e-20)
(0.00474987 0.00138954 0)
(0.00266181 0.00314771 0)
(2.39478e-05 0.00479419 -8.68939e-20)
(-0.00312956 0.0063017 -1.70966e-19)
(-0.00676164 0.00765909 1.6805e-19)
(-0.0108353 0.00886791 0)
(-0.015316 0.00993854 1.62506e-19)
(-0.0201731 0.0108876 -7.9968e-20)
(-0.0253813 0.0117348 0)
(-0.0309216 0.0125016 1.55029e-19)
(-0.036781 0.0132087 7.64453e-20)
(-0.042953 0.0138755 -1.50804e-19)
(-0.0494368 0.0145188 -7.45062e-20)
(-0.056237 0.0151533 0)
(-0.063362 0.0157918 1.4562e-19)
(-0.0708236 0.0164467 1.44079e-19)
(-0.0786364 0.0171285 0)
(-0.0868177 0.0178467 1.4109e-19)
(-0.0953868 0.0186087 0)
(-0.104365 0.0194204 1.38122e-19)
(-0.113777 0.0202858 6.83616e-20)
(-0.123646 0.021208 0)
(-0.133999 0.0221894 0)
(-0.144864 0.0232316 0)
(-0.156268 0.0243358 0)
(-0.168242 0.025503 0)
(-0.180815 0.0267339 0)
(-0.194018 0.0280297 1.25786e-19)
(-0.207882 0.0293915 -1.86342e-19)
(-0.222437 0.03082 0)
(-0.237716 0.0323161 0)
(-0.253748 0.0338802 0)
(-0.270566 0.0355128 1.51448e-22)
(-0.2882 0.037214 1.16119e-19)
(-0.30668 0.038984 2.28718e-19)
(-0.326033 0.0408229 -2.2533e-19)
(-0.346289 0.0427297 -1.10875e-19)
(-0.367471 0.0447018 1.09333e-19)
(-0.389605 0.0467362 -1.77987e-22)
(-0.41271 0.0488291 1.05704e-19)
(-0.436806 0.0509768 0)
(-0.461909 0.0531741 1.02227e-19)
(-0.488029 0.0554158 -1.91345e-22)
(-0.515173 0.0576956 0)
(-0.543344 0.0600073 0)
(-0.572537 0.0623442 -9.52267e-20)
(-0.602746 0.0646962 0)
(-0.633957 0.0670508 0)
(-0.66615 0.069397 8.98019e-20)
(-0.699302 0.0717236 1.76564e-19)
(-0.733379 0.0740193 -8.67748e-20)
(-0.768343 0.0762714 0)
(-0.804151 0.0784673 8.3408e-20)
(-0.840752 0.0805933 0)
(-0.87809 0.0826363 7.97293e-20)
(-0.916103 0.0845825 7.84944e-20)
(-0.954724 0.086419 -1.53424e-19)
(-0.99388 0.0881324 -7.49588e-20)
(-1.03349 0.0897106 0)
(-1.07349 0.0911412 1.44128e-19)
(-1.11377 0.0924135 0)
(-1.15426 0.0935168 2.07397e-19)
(-1.19487 0.0944422 1.35235e-19)
(-1.2355 0.0951808 1.32356e-19)
(-1.27607 0.095726 -1.29518e-19)
(-1.31648 0.0960717 1.90217e-19)
(-1.35664 0.0962147 0)
(-1.39645 0.0961508 0)
(-1.43584 0.095878 -1.18516e-19)
(-1.47469 0.0953948 -1.73881e-19)
(-1.51294 0.0947024 0)
(-1.55049 0.0938014 5.53871e-20)
(-1.58726 0.0926948 0)
(-1.62317 0.091385 -1.58128e-19)
(-1.65813 0.0898771 -1.69836e-22)
(-1.69209 0.088175 1.56526e-22)
(-1.72495 0.0862847 9.76128e-20)
(-1.75665 0.0842116 0)
(-1.78711 0.0819635 -9.2451e-20)
(-1.81627 0.0795478 -1.00772e-22)
(-1.84407 0.0769697 0)
(-1.87048 0.0742357 0)
(-1.89543 0.0713541 0)
(-1.91885 0.0683337 7.93967e-20)
(-1.94071 0.0651832 0)
(-1.96094 0.0619109 0)
(-1.97949 0.0585249 0)
(-1.99634 0.0550336 0)
(-2.01143 0.0514452 0)
(-2.02472 0.0477683 6.28266e-20)
(-2.03618 0.0440096 0)
(-2.04577 0.0401769 5.69279e-20)
(-2.05347 0.0362768 5.39453e-20)
(-2.05923 0.0323193 -5.09171e-20)
(-2.06302 0.0283125 0)
(-2.06481 0.0242668 -4.47179e-20)
(-2.06458 0.0201885 0)
(-2.06229 0.0160849 -3.83205e-20)
(-2.05792 0.011961 3.50457e-20)
(-2.05146 0.00782575 9.56557e-20)
(-2.04291 0.00368849 0)
(-2.03227 -0.000438163 7.51929e-20)
(-2.01957 -0.00453895 2.2018e-20)
(-2.00476 -0.00860816 0)
(-1.98782 -0.0126471 2.91878e-20)
(-1.96876 -0.0166522 2.19714e-20)
(-1.94754 -0.020616 -2.15837e-20)
(-1.92416 -0.024525 0)
(-1.8986 -0.0283709 5.57058e-22)
(-1.87088 -0.0321512 4.3506e-21)
(-1.84101 -0.0358613 2.35139e-20)
(-1.809 -0.0394969 0)
(-1.77486 -0.0430493 0)
(-1.7386 -0.0465101 0)
(-1.70025 -0.0498709 2.26406e-20)
(-1.65983 -0.0531262 0)
(-1.61737 -0.0562699 0)
(-1.57291 -0.0592976 -3.58773e-20)
(-1.52649 -0.0622034 -3.99261e-20)
(-1.47816 -0.064982 0)
(-1.42796 -0.0676271 0)
(-1.37595 -0.0701343 -1.04267e-19)
(-1.32219 -0.0724982 0)
(-1.26673 -0.0747134 1.20562e-19)
(-1.20965 -0.0767757 1.27138e-19)
(-1.15101 -0.0786843 0)
(-1.09088 -0.0804369 0)
(-1.02935 -0.0820336 -1.5124e-19)
(-0.9665 -0.0834706 -1.63747e-21)
(-0.902402 -0.0847451 -1.65333e-21)
(-0.837147 -0.0858554 0)
(-0.770824 -0.0867954 -3.66803e-19)
(-0.703523 -0.0875656 0)
(-0.635339 -0.0881685 0)
(-0.566376 -0.0886067 0)
(-0.49673 -0.0888812 2.14063e-19)
(-0.426503 -0.0889953 0)
(-0.355797 -0.0889502 -4.52991e-19)
(-0.284715 -0.0887478 -2.35016e-19)
(-0.213365 -0.0883865 0)
(-0.141855 -0.0878632 -2.48185e-19)
(-0.0703002 -0.0871695 0)
(0.00118142 -0.0862934 0)
(0.0724633 -0.0852117 -7.8297e-19)
(0.143411 -0.0838951 5.23749e-19)
(0.213891 -0.0823121 0)
(0.283795 -0.0804795 5.28928e-19)
(0.353038 -0.0785138 -2.6757e-19)
(0.421745 -0.0765092 0)
(0.489968 -0.0744594 0)
(0.557625 -0.0723999 0)
(0.624598 -0.0703662 -8.48511e-19)
(0.69079 -0.0683729 0)
(0.756137 -0.0664088 -2.92929e-19)
(0.82059 -0.0644602 0)
(0.884103 -0.0625136 0)
(0.946634 -0.0605608 0)
(1.00813 -0.0585911 0)
(1.06853 -0.0565951 0)
(1.12776 -0.0545581 0)
(1.18575 -0.0524594 -6.44317e-19)
(1.24238 -0.0502635 0)
(1.29751 -0.0479139 -3.3141e-19)
(1.35092 -0.0453118 1.0045e-18)
(1.40234 -0.0422877 0)
(1.4512 -0.0385302 0)
(1.4972 -0.0334496 -6.94703e-19)
(1.53747 -0.0259919 -7.05862e-19)
(1.57809 -0.0142218 7.16645e-19)
(1.59018 0.0102278 7.3456e-19)
(0.000109719 -0.00308972 -2.3106e-19)
(0.000800229 -0.00706101 -3.16981e-19)
(0.00170874 -0.00925186 -2.07998e-19)
(0.00257099 -0.00989225 -1.0135e-19)
(0.00311959 -0.00926007 0)
(0.00317165 -0.00764494 1.8816e-19)
(0.00261777 -0.00532735 -9.02253e-20)
(0.00140386 -0.00255833 0)
(-0.000485886 0.00045121 -8.34844e-20)
(-0.00304117 0.00353346 0)
(-0.00623685 0.00656159 1.55525e-19)
(-0.0100393 0.00944619 0)
(-0.0144114 0.0121303 7.33376e-20)
(-0.0193151 0.0145841 1.4292e-19)
(-0.0247142 0.0167996 -1.39502e-19)
(-0.0305759 0.0187853 0)
(-0.0368713 0.0205617 -1.33462e-19)
(-0.0435774 0.0221569 0)
(-0.0506761 0.0236036 0)
(-0.0581558 0.0249356 -1.25954e-19)
(-0.0660104 0.0261859 0)
(-0.0742391 0.0273846 5.66913e-23)
(-0.0828461 0.028558 0)
(-0.0918399 0.0297287 0)
(-0.101232 0.030916 -6.53788e-23)
(-0.111039 0.0321366 -1.14958e-19)
(-0.121276 0.0334049 -1.13339e-19)
(-0.131963 0.0347331 -1.11893e-19)
(-0.143122 0.0361313 0)
(-0.154775 0.0376074 -2.1775e-19)
(-0.166945 0.0391675 0)
(-0.179658 0.0408159 -1.05892e-19)
(-0.192941 0.0425558 0)
(-0.206819 0.0443894 0)
(-0.221322 0.0463183 1.01516e-19)
(-0.236477 0.0483435 0)
(-0.252312 0.0504656 -9.86155e-20)
(-0.268855 0.0526847 -1.05841e-22)
(-0.286133 0.0550008 1.91554e-19)
(-0.304175 0.0574134 -1.88557e-19)
(-0.323004 0.0599216 0)