/*--------------------------------*- C++ -*----------------------------------*\
| =========                 |                                                 |
| \\      /  F ield         | OpenFOAM: The Open Source CFD Toolbox           |
|  \\    /   O peration     | Version:  2412                                  |
|   \\  /    A nd           | Website:  www.openfoam.com                      |
|    \\/     M anipulation  |                                                 |
\*---------------------------------------------------------------------------*/
FoamFile
{
    version     2.0;
    format      ascii;
    arch        "LSB;label=32;scalar=64";
    class       volScalarField;
    location    "56";
    object      p;
}
// * * * * * * * * * * * * * * * * * * * * * * * * * * * * * * * * * * * * * //

dimensions      [0 2 -2 0 0 0 0];

internalField   nonuniform List<scalar> 
195128
(
2.3913614
2.3194252
2.2625924
2.2200507
2.1851817
2.1559505
2.1310061
2.1091772
2.089668
2.0719702
2.0557484
2.0407769
2.0269028
2.0140233
2.0020713
1.9910054
1.9808031
1.9714553
1.9629606
1.9553181
1.9485166
1.9425159
1.9372128
1.9323752
1.9275141
1.9216457
1.9128844
1.8978712
1.8713749
1.8277241
1.7675171
1.7013396
1.6363336
1.5747585
1.5168727
1.4622827
1.4104098
1.360731
1.3128521
1.2664871
1.2214185
1.1774669
1.1344726
1.0922855
1.0507624
1.0097671
0.96917044
0.92885282
0.88870445
0.84862632
0.80853087
0.76834311
0.72800294
0.68746958
0.64672949
0.60581286
0.56482742
0.52402424
0.48392541
0.44560507
0.41112058
0.38354224
0.36314703
0.34826828
0.33715234
0.32845706
0.32122066
0.31480478
0.30882177
0.30306273
0.29743875
0.29193479
0.28657429
0.28139313
0.27642244
0.27167948
0.26716469
0.26286287
0.25874632
0.25477874
0.2509191
0.24712483
0.24335428
0.23956848
0.23573221
0.2318146
0.2277893
0.22363442
0.21933226
0.214869
0.21023423
0.20542059
0.20042329
0.19523975
0.18986923
0.18431247
0.17857147
0.17264915
0.16654916
0.16027573
0.15383342
0.14722706
0.14046162
0.13354204
0.12647324
0.11926004
0.11190702
0.10441856
0.096798804
0.089051541
0.081180268
0.073188111
0.065077722
0.05685123
0.048509988
0.040053884
0.031479215
0.022779825
0.013961578
0.0049171151
2.4616932
2.3340542
2.2589609
2.2141485
2.179109
2.1504753
2.126519
2.1056488
2.0869365
2.069875
2.054155
2.0395776
2.026014
2.0133809
2.0016258
1.9907187
1.9806462
1.9714063
1.9630042
1.9554459
1.9487291
1.942828
1.9376654
1.9330584
1.928609
1.923482
1.9159806
1.9028232
1.8783044
1.8352341
1.7729751
1.7041238
1.637319
1.5748465
1.5166552
1.4620813
1.4103403
1.3607937
1.3130066
1.2666909
1.2216398
1.1776867
1.1346807
1.0924774
1.0509364
1.0099227
0.96930789
0.92897249
0.88880679
0.84871167
0.80859956
0.76839493
0.72803618
0.68747979
0.64670684
0.60573694
0.56465702
0.52367967
0.48326465
0.44442885
0.40929102
0.3813411
0.36093679
0.3462878
0.33548126
0.3270795
0.32007226
0.313807
0.30790309
0.30216788
0.29653068
0.29099324
0.28559272
0.28037509
0.27537802
0.27062218
0.26610899
0.2618225
0.2577332
0.25380252
0.24998701
0.24624184
0.24252333
0.23879086
0.23500789
0.23114254
0.22716773
0.22306112
0.21880468
0.21438443
0.20978993
0.20501384
0.20005144
0.19490028
0.18955973
0.18403069
0.17831529
0.17241658
0.16633836
0.16008498
0.1536611
0.14707166
0.14032172
0.1334163
0.1263604
0.11915887
0.11181635
0.10433726
0.096725764
0.088985657
0.081120441
0.073133239
0.065026716
0.056803068
0.048463903
0.040009869
0.031438922
0.022749523
0.013962529
0.0049824394
2.5658398
2.3680714
2.264129
2.2122185
2.173923
2.1440316
2.120188
2.0999291
2.0819225
2.0655356
2.0504171
2.0363579
2.0232337
2.0109702
1.9995246
1.9888755
1.9790163
1.9699514
1.961691
1.9542461
1.9476208
1.9418002
1.9367292
1.9322709
1.9281201
1.9236126
1.9173121
1.906171
1.8841755
1.8423978
1.7783242
1.7066285
1.6376782
1.573937
1.5151715
1.4605078
1.4089299
1.3596286
1.3120826
1.2659728
1.2210897
1.1772738
1.1343828
1.0922784
1.050824
1.0098861
0.96933736
0.92905852
0.88894014
0.84888316
0.8087998
0.76861369
0.72826094
0.68769363
0.64688552
0.60584456
0.56463966
0.52345651
0.48271663
0.44340906
0.40771109
0.37944248
0.35898356
0.34445901
0.33387943
0.32574464
0.3189882
0.3129225
0.30715382
0.30149106
0.2958733
0.29031551
0.28486852
0.27959056
0.27452926
0.26971264
0.265147
0.26081916
0.25670077
0.25275318
0.24893209
0.24519134
0.24148575
0.23777312
0.23401542
0.23017943
0.22623692
0.22216452
0.21794343
0.21355902
0.20900036
0.20425969
0.19933204
0.19421475
0.18890704
0.18340975
0.17772493
0.17185563
0.16580564
0.15957932
0.15318137
0.14661676
0.13989058
0.1330079
0.12597377
0.11879309
0.11147055
0.10401063
0.096417555
0.088695209
0.080847194
0.072876783
0.064786868
0.056580006
0.048258444
0.039824064
0.031276849
0.022618623
0.013880871
0.0050024601
2.6865829
2.415561
2.2765525
2.2142401
2.1705093
2.1377866
2.1131411
2.0929936
2.0754131
2.0595482
2.0449556
2.0313839
2.018693
2.0068058
1.9956809
1.9853
1.9756602
1.9667689
1.9586397
1.9512877
1.9447231
1.9389423
1.9339127
1.9295424
1.9256137
1.921622
1.9163866
1.9071413
1.887688
1.8474244
1.7816997
1.7071523
1.6360113
1.5709667
1.5116267
1.4569309
1.4056346
1.3567428
1.309628
1.2639236
1.2194059
1.1759164
1.1333184
1.0914782
1.0502619
1.0095375
0.96917811
0.92906497
0.88908918
0.84915221
0.80916635
0.76905427
0.72874916
0.68819705
0.6473616
0.60623599
0.56486993
0.52342851
0.48231788
0.44254527
0.40639768
0.37794897
0.35754418
0.34318998
0.33284332
0.32497358
0.31847548
0.31262951
0.30702434
0.30146327
0.29588838
0.29032311
0.28482926
0.27947655
0.27432322
0.26940629
0.26473921
0.26031414
0.25610635
0.25207946
0.2481903
0.24439298
0.24064202
0.23689449
0.23311144
0.22925855
0.22530652
0.22123094
0.21701202
0.21263424
0.2080859
0.20335856
0.19844667
0.19334708
0.18805861
0.18258176
0.17691833
0.17107112
0.16504376
0.15884047
0.15246586
0.14592481
0.13922235
0.13236354
0.1253534
0.11819686
0.11089863
0.10346327
0.095895091
0.088198132
0.080376203
0.072432878
0.064371494
0.056195263
0.047907405
0.039511325
0.031009301
0.022406179
0.013736899
0.0049702727
2.8138022
2.4710764
2.2939574
2.2191604
2.1686292
2.1319764
2.1058391
2.0854124
2.0680174
2.0525171
2.038342
2.0251781
2.0128573
2.0012912
1.9904354
1.9802707
1.9707951
1.9620174
1.9539534
1.9466219
1.9400393
1.9342135
1.9291332
1.9247455
1.9209029
1.9172264
1.9127484
1.904997
1.8877872
1.8491169
1.7820439
1.7049085
1.6317867
1.5656146
1.5058517
1.4512688
1.4004096
1.3521004
1.3056055
1.2605044
1.2165521
1.173585
1.131467
1.0900661
1.0492494
1.0088849
0.96884546
0.92901278
0.88927903
0.84954732
0.80973127
0.7697538
0.7295462
0.68904884
0.64821505
0.60702253
0.56550179
0.52380053
0.48232141
0.44211277
0.40560011
0.37709348
0.35686366
0.34275465
0.33266463
0.32504932
0.31878428
0.31313184
0.30766969
0.30219669
0.29665601
0.29107637
0.28552745
0.28008787
0.27482475
0.26978323
0.26498379
0.26042441
0.25608496
0.25193249
0.24792625
0.2440219
0.24017476
0.23634219
0.23248507
0.22856866
0.22456301
0.22044294
0.21618787
0.21178147
0.20721123
0.20246799
0.1975455
0.19244
0.18714976
0.18167477
0.17601641
0.17017712
0.16416021
0.15796962
0.15160974
0.14508526
0.13840109
0.13156214
0.12457339
0.11743971
0.11016583
0.10275635
0.095215694
0.087548056
0.079757511
0.071848007
0.063823412
0.05568769
0.047445093
0.039100459
0.030658092
0.022125362
0.013536902
0.0048908151
2.941047
2.5309116
2.3149731
2.2263661
2.1680839
2.1266522
2.0984374
2.0773874
2.0599651
2.0446868
2.0308265
2.0179886
2.0059654
1.9946509
1.9839923
1.9739672
1.9645716
1.9558138
1.9477101
1.9402809
1.9335466
1.9275232
1.9222135
1.9175902
1.913551
1.9098005
1.9055325
1.8985728
1.8829934
1.8459301
1.7781599
1.699155
1.624577
1.5576304
1.4976887
1.443406
1.3931552
1.3456076
1.2999267
1.2556358
1.212462
1.1702295
1.1287973
1.0880306
1.0477938
1.0079526
0.96837854
0.92895314
0.88957026
0.85013619
0.81056824
0.77079254
0.73074163
0.6903534
0.64957372
0.60836738
0.56674803
0.52484797
0.48306839
0.44250019
0.40571119
0.37724112
0.35725559
0.34341819
0.33357163
0.32616937
0.32008073
0.31456166
0.30918733
0.3037563
0.29821349
0.29259137
0.28696491
0.28141888
0.27602676
0.27083988
0.26588444
0.26116353
0.25666147
0.25234899
0.24818828
0.24413723
0.24015275
0.23619323
0.2322201
0.2281988
0.22409926
0.21989596
0.21556783
0.21109795
0.20647317
0.20168367
0.19672255
0.1915854
0.18626991
0.18077551
0.17510307
0.16925458
0.16323292
0.1570417
0.15068497
0.14416716
0.13749294
0.13066707
0.12369437
0.11657964
0.10932756
0.10194275
0.094429716
0.086792823
0.079036398
0.071164766
0.063182313
0.055093711
0.046904137
0.038619626
0.030246142
0.02179307
0.01329279
0.0047714739
3.0637356
2.5919054
2.3381974
2.2351991
2.1686213
2.12182
2.0910475
2.0690608
2.0514068
2.0362082
2.0225579
2.009962
1.9981615
1.9870252
1.9764872
1.9665173
1.9571064
1.948259
1.939988
1.9323107
1.9252452
1.9188055
1.9129939
1.9077855
1.9030877
1.8986371
1.8937271
1.8864678
1.8714615
1.835818
1.7684344
1.6889027
1.6138493
1.5467459
1.4870028
1.4332613
1.3838057
1.3372024
1.2925342
1.2492707
1.2071046
1.1658403
1.1253239
1.0854117
1.0459606
1.0068304
0.96788835
0.92901448
0.89010436
0.85106909
0.81183303
0.77233047
0.73250093
0.69228618
0.65163158
0.6104964
0.56888432
0.52691668
0.48499088
0.44422471
0.40730526
0.37896244
0.35922451
0.34559944
0.33590365
0.32860552
0.32257996
0.31708579
0.3117022
0.30623091
0.30061896
0.29490099
0.28915461
0.28346772
0.27791733
0.27255848
0.2674212
0.26251236
0.25781991
0.25331786
0.2489713
0.24474053
0.24058441
0.23646277
0.23233807
0.22817637
0.22394789
0.21962716
0.2151929
0.21062787
0.20591846
0.20105432
0.19602798
0.19083447
0.18547087
0.17993607
0.1742304
0.16835534
0.16231333
0.15610753
0.14974165
0.14321977
0.13654629
0.12972572
0.1227627
0.11566188
0.10842789
0.10106531
0.093578703
0.085972559
0.078251422
0.070419939
0.062482943
0.054445691
0.046314098
0.038095118
0.02979604
0.021427835
0.013019577
0.0046215351
3.1784531
2.6513395
2.3621822
2.2449064
2.169902
2.117432
2.0837668
2.060584
2.0425086
2.0272458
2.0136924
2.0012447
1.9895836
1.9785457
1.9680465
1.9580434
1.9485178
1.9394654
1.9308902
1.9227993
1.915198
1.9080839
1.9014369
1.8952026
1.8892525
1.8832913
1.8766318
1.8676129
1.8516061
1.8168171
1.7513104
1.6732707
1.5992187
1.5328705
1.4738492
1.4209369
1.3724646
1.3269776
1.2835136
1.2414952
1.2005761
1.1605306
1.1211832
1.082373
1.0439428
1.0057405
0.96762411
0.92946868
0.8911698
0.85264424
0.81382792
0.77466999
0.73512518
0.6951494
0.65469974
0.61374424
0.57229253
0.53046944
0.4886735
0.44802517
0.41126443
0.38315338
0.36357886
0.34998574
0.3402229
0.33280478
0.32663121
0.32097389
0.31542004
0.30977479
0.30398514
0.29808434
0.29214851
0.28626468
0.2805097
0.27493928
0.26958482
0.26445519
0.25954068
0.25481781
0.25025409
0.24581206
0.24145247
0.23713677
0.2328286
0.22849489
0.22410641
0.21963793
0.21506822
0.21037987
0.20555897
0.20059474
0.19547926
0.190207
0.18477451
0.17918013
0.17342363
0.16750597
0.16142912
0.15519577
0.1488092
0.14227314
0.13559164
0.12876894
0.12180944
0.11471763
0.10749797
0.10015503
0.092693337
0.085117472
0.07743213
0.069642195
0.061752831
0.053769725
0.045699314
0.037549191
0.02932767
0.02104689
0.012732139
0.0044510617
3.2825872
2.7069387
2.3855419
2.2546933
2.1715138
2.1133724
2.0766539
2.0520978
2.0334456
2.0179854
2.0044142
1.9920138
1.9804002
1.9693731
1.9588249
1.9486966
1.9389554
1.9295836
1.9205699
1.9119031
1.9035652
1.8955216
1.8877076
1.8800064
1.8722071
1.8639172
1.8543792
1.8420552
1.8231968
1.7882819
1.7264035
1.6523925
1.581162
1.5166628
1.4589546
1.4071462
1.3597929
1.3155331
1.2734086
1.2328084
1.1933429
1.154747
1.1168126
1.0793523
1.0421865
1.0051428
0.96806211
0.93080749
0.89327011
0.8553723
0.81706498
0.77831849
0.73911323
0.69943335
0.65926552
0.61860911
0.57750826
0.53612517
0.49489206
0.45492339
0.41887359
0.3911009
0.37145557
0.357532
0.34730458
0.33937925
0.33271051
0.32659383
0.32062398
0.31460475
0.30847663
0.30226449
0.29603639
0.28987261
0.28384493
0.27800575
0.27238475
0.26699047
0.2618139
0.25683287
0.25201652
0.24732913
0.24273311
0.23819131
0.23366858
0.22913274
0.22455514
0.21991092
0.21517896
0.21034176
0.20538517
0.20029809
0.19507212
0.18970124
0.18418146
0.17851054
0.17268773
0.16671343
0.16058906
0.15431686
0.14789962
0.14134066
0.13464366
0.12781253
0.1208514
0.11376451
0.10655618
0.099230836
0.091792971
0.084247161
0.076598177
0.068851039
0.061011112
0.053084342
0.045077481
0.036998493
0.02885644
0.020664182
0.012443142
0.0042697033
3.3741156
2.7568385
2.4070267
2.2637863
2.1730162
2.1094759
2.069725
2.0437163
2.0243846
2.0086194
1.9949258
1.9824738
1.9708135
1.9597063
1.9490191
1.9386735
1.9286196
1.9188219
1.9092495
1.8998672
1.8906253
1.8814477
1.8722114
1.8627188
1.8526504
1.8414808
1.8283273
1.8116791
1.7886063
1.7525951
1.6959664
1.6285165
1.5619044
1.5002796
1.4443774
1.3938327
1.3476021
1.3045367
1.2637398
1.2245868
1.1866467
1.1496086
1.113224
1.077271
1.0415391
1.005827
0.96994891
0.93374816
0.89710529
0.85994243
0.82222274
0.78394267
0.74511957
0.70578141
0.66596455
0.62572595
0.58517949
0.54457313
0.50443822
0.4659246
0.43139281
0.40407263
0.38395884
0.3691367
0.35786386
0.34889263
0.3412604
0.33429316
0.32758691
0.32093431
0.31425926
0.30756862
0.30091385
0.29436115
0.28797128
0.28178854
0.27583721
0.27012274
0.26463473
0.25935085
0.25424085
0.24926996
0.24440176
0.23960019
0.23483107
0.23006296
0.22526775
0.22042088
0.2155013
0.21049144
0.2053769
0.20014621
0.19479051
0.18930326
0.1836799
0.17791762
0.17201505
0.16597203
0.1597894
0.15346885
0.14701269
0.14042375
0.1337053
0.12686087
0.11989425
0.11280941
0.10561045
0.098301607
0.090887259
0.083371912
0.075760318
0.068057524
0.060268961
0.052400674
0.04445953
0.036453627
0.028392517
0.020289306
0.012161801
0.0040857726
3.4514762
2.7995445
2.4255649
2.2714855
2.1739863
2.105561
2.0629697
2.0355313
2.0154778
1.9993349
1.9854345
1.9728428
1.9610481
1.949774
1.9388622
1.9282136
1.9177597
1.9074461
1.8972202
1.8870206
1.8767654
1.8663362
1.8555561
1.8441567
1.8317318
1.817666
1.801023
1.7803964
1.7535988
1.7168051
1.6657558
1.6060172
1.5454341
1.4877314
1.4341543
1.384948
1.3396311
1.297411
1.2575457
1.2194491
1.1826752
1.1468784
1.1117738
1.077107
1.0426386
1.0081403
0.97340153
0.93824546
0.9025377
0.86619143
0.82917273
0.79149644
0.75321262
0.71439438
0.67513586
0.63556656
0.5958893
0.55645362
0.51787823
0.48125916
0.44842532
0.42152988
0.40071068
0.38460816
0.37185084
0.3613849
0.35236645
0.34417369
0.33641015
0.32885537
0.32141126
0.31405994
0.30682919
0.29976468
0.29291054
0.28629839
0.2799435
0.27384538
0.2679901
0.26235358
0.25690494
0.25160955
0.24643144
0.24133523
0.23628734
0.23125684
0.22621597
0.22114034
0.21600891
0.2108039
0.20551064
0.20011721
0.19461424
0.18899464
0.1832532
0.17738649
0.17139249
0.16527039
0.15902043
0.15264368
0.1461419
0.13951741
0.13277298
0.1259117
0.118937
0.1118525
0.10466199
0.097369489
0.089979173
0.082495394
0.074922792
0.067266329
0.059531372
0.051723911
0.043850759
0.03591993
0.027941242
0.019927583
0.01189365
0.0039057541
3.5134832
2.8338928
2.4402825
2.2771999
2.1740559
2.1014608
2.0563713
2.0276239
2.006865
1.9903107
1.9761443
1.9633423
1.9513379
1.9398209
1.9286092
1.9175844
1.90666
1.895763
1.8848205
1.8737478
1.8624353
1.8507318
1.8384226
1.8251999
1.810622
1.7940632
1.7746496
1.751198
1.7221552
1.6854557
1.6391614
1.5863738
1.5319894
1.4788861
1.4283619
1.3809799
1.3367192
1.2951917
1.2559081
1.2184094
1.1822981
1.1472349
1.1129234
1.079093
1.0454893
1.0118703
0.97801306
0.94372888
0.90887365
0.87335431
0.83713527
0.80023808
0.76273065
0.72471684
0.68633581
0.64777669
0.60931148
0.57135148
0.53452803
0.49979074
0.46846697
0.4419169
0.42032599
0.4028363
0.38843295
0.37626314
0.36562041
0.35595914
0.34690786
0.33824217
0.32984562
0.32167559
0.31373404
0.30604298
0.29862665
0.29150105
0.28466991
0.27812463
0.27184608
0.26580699
0.25997483
0.25431423
0.24878911
0.24336422
0.23800623
0.23268445
0.22737125
0.22204225
0.21667625
0.21125523
0.20576408
0.20019041
0.19452428
0.18875792
0.18288548
0.1769028
0.17080717
0.16459708
0.15827208
0.1518326
0.14527977
0.13861532
0.1318415
0.12496089
0.11797647
0.11089146
0.10370931
0.096433692
0.089068533
0.081617944
0.074086352
0.066478531
0.058799661
0.051055539
0.043252774
0.035399114
0.027504448
0.019581034
0.011641123
0.0037342134
3.5592703
2.8590166
2.4505091
2.2804694
2.1729359
2.0970454
2.0499249
2.0200746
1.9986801
1.9817176
1.9672524
1.954189
1.9419157
1.9300943
1.9185222
1.9070643
1.8956185
1.884096
1.8724073
1.8604496
1.8480943
1.8351708
1.821448
1.80661
1.790228
1.7717295
1.750373
1.7252436
1.6952942
1.659451
1.6170291
1.5698745
1.5209914
1.4724465
1.4253456
1.3802954
1.337509
1.2968923
1.2581972
1.2211272
1.1853826
1.1506763
1.116737
1.083306
1.0501359
1.016991
0.98365336
0.94993774
0.91570401
0.88086391
0.84538653
0.8092991
0.77267917
0.73564688
0.69836565
0.66105483
0.62401528
0.587666
0.55258697
0.51954975
0.48949223
0.46327021
0.44105078
0.42232078
0.4063662
0.39252939
0.38024393
0.36905336
0.35862768
0.34875209
0.33930143
0.33021447
0.32147057
0.31306937
0.30501543
0.29730872
0.28994073
0.28289403
0.27614342
0.26965775
0.26340215
0.25734
0.25143461
0.2456505
0.2399543
0.23431532
0.22870588
0.22310145
0.21748058
0.21182487
0.20611877
0.20034928
0.19450584
0.18857998
0.18256513
0.17645636
0.17025022
0.16394442
0.1575378
0.15103006
0.14442167
0.13771371
0.13090784
0.12400608
0.1170109
0.10992506
0.10275157
0.09549374
0.088155134
0.080739545
0.073251099
0.065694277
0.058073966
0.050395651
0.042665602
0.034891156
0.027082103
0.019249739
0.011404556
0.0035740099
3.5882571
2.8743111
2.4557743
2.2809798
2.1704306
2.0922337
2.0436547
2.0129714
1.9910559
1.9737202
1.9589475
1.9455907
1.933006
1.920834
1.9088569
1.8969263
1.8849282
1.8727619
1.8603264
1.8475079
1.8341678
1.8201297
1.8051643
1.7889722
1.7711676
1.7512641
1.7286727
1.7027272
1.6727552
1.6382231
1.5990133
1.556305
1.5119801
1.4675016
1.4237465
1.3812467
1.3402754
1.300887
1.2629955
1.2264421
1.1910315
1.1565506
1.122779
1.0894945
1.0564777
1.0235171
0.99041668
0.95700992
0.92317266
0.88883067
0.85396427
0.81860864
0.78284866
0.74681266
0.71067315
0.67465625
0.63905845
0.60426737
0.57077869
0.5391933
0.51016686
0.48424538
0.46156354
0.44182208
0.42453581
0.40921549
0.39542108
0.38278428
0.37102468
0.35994751
0.34942852
0.33939588
0.32981242
0.32065967
0.3119253
0.30359516
0.29564963
0.28806302
0.28080434
0.27383856
0.26712841
0.26063584
0.25432338
0.24815517
0.24209766
0.23611999
0.23019435
0.22429597
0.21840309
0.21249688
0.20656125
0.20058263
0.19454976
0.18845345
0.18228636
0.17604277
0.16971843
0.16331027
0.15681634
0.15023561
0.1435678
0.13681332
0.12997317
0.12304878
0.11604203
0.10895517
0.10179073
0.094551561
0.087240804
0.079861857
0.072418462
0.064914717
0.057355117
0.049744729
0.042089379
0.034395867
0.026673738
0.01893309
0.011183218
0.0034266584
3.6001711
2.8794054
2.4557959
2.2785764
2.166451
2.087013
2.0376161
2.006415
1.984126
1.9664771
1.9514074
1.9377416
1.9248176
1.9122633
1.899851
1.8874239
1.87486
1.8620515
1.8488912
1.8352606
1.8210202
1.8059984
1.7899807
1.7726993
1.753825
1.7329651
1.709674
1.6834869
1.6539898
1.6209391
1.5844317
1.5452601
1.5046372
1.4636018
1.4228426
1.3828021
1.3437417
1.3057705
1.2688871
1.2330209
1.1980562
1.1638481
1.1302322
1.0970327
1.0640702
1.0311688
0.99816549
0.96492243
0.93133982
0.89736324
0.86298812
0.82825958
0.79326856
0.75814692
0.72306694
0.68824686
0.65396047
0.62054604
0.58840886
0.55800536
0.52979452
0.50413279
0.48112291
0.460592
0.44221727
0.42564458
0.41054027
0.39661466
0.38363685
0.37143706
0.35989856
0.3489457
0.33853092
0.32862273
0.31919598
0.31022534
0.30168227
0.29353437
0.28574581
0.27827836
0.27109268
0.26414955
0.2574108
0.25084023
0.24440411
0.23807143
0.23181419
0.2256074
0.21942896
0.21325962
0.20708275
0.20088416
0.19465192
0.1883761
0.18204858
0.17566285
0.16921384
0.16269766
0.15611157
0.14945375
0.14272316
0.1359195
0.12904307
0.12209465
0.11507551
0.10798733
0.10083209
0.093612137
0.086330131
0.078989003
0.071592037
0.064142872
0.056645526
0.049104562
0.041525267
0.033913804
0.02627934
0.018630618
0.010976083
0.0032927263
3.5949929
2.8741431
2.4504958
2.2732475
2.1610117
2.0814398
2.0318965
2.0005204
1.9780256
1.9601389
1.9447959
1.9308176
1.9175379
1.9045809
1.8917152
1.8787801
1.8656504
1.8522154
1.8383666
1.8239868
1.8089419
1.7930724
1.7761867
1.7580546
1.7384062
1.7169353
1.6933156
1.6672332
1.6384428
1.6068517
1.5726184
1.536291
1.4986705
1.4604971
1.4223102
1.384477
1.3472319
1.3106978
1.2749124
1.2398533
1.2054562
1.171626
1.1382456
1.1051836
1.0723015
1.0394623
1.0065393
0.97342721
0.94005397
0.906387
0.87243756
0.83826059
0.8039514
0.76964153
0.73549708
0.7017209
0.6685566
0.6362903
0.60524585
0.57576687
0.54817747
0.52271761
0.4994648
0.47831966
0.45906993
0.44146409
0.42525352
0.41021421
0.39615995
0.38294656
0.37046833
0.35865045
0.34743998
0.33679704
0.32668754
0.31707819
0.30793394
0.29921749
0.29088952
0.28290951
0.2752367
0.26783108
0.26065409
0.25366938
0.24684312
0.24014426
0.23354469
0.22701919
0.22054538
0.21410359
0.20767672
0.20124997
0.19481074
0.1883484
0.18185404
0.17532037
0.16874148
0.16211269
0.15543043
0.14869209
0.14189584
0.13504065
0.12812609
0.12115227
0.1141198
0.10702974
0.099883489
0.092682849
0.085429937
0.078127166
0.070777304
0.063383464
0.055949123
0.048478264
0.040975559
0.033446449
0.025899597
0.018342309
0.010782236
0.0031721989
3.5727731
2.8586426
2.4399979
2.2650893
2.1542225
2.0756325
2.0266193
1.9954157
1.9728881
1.9548448
1.9392585
1.9249706
1.9113259
1.8979537
1.8846247
1.8711791
1.8574923
1.843455
1.8289612
1.8138994
1.7981454
1.7815561
1.7639654
1.7451817
1.7249893
1.7031556
1.6794467
1.6536551
1.6256411
1.595387
1.5630519
1.5290224
1.4938395
1.458032
1.4220185
1.3861025
1.3504901
1.315304
1.2805995
1.2463814
1.212617
1.179246
1.1461872
1.1133453
1.0806183
1.0479047
1.0151119
0.98216596
0.94902119
0.9156656
0.88212474
0.84846142
0.81477292
0.78118725
0.74786068
0.71497734
0.68274967
0.65141616
0.62123391
0.59246243
0.56533495
0.54001859
0.51657336
0.49494324
0.47498966
0.45653628
0.43940019
0.42341022
0.40841827
0.39430403
0.38097401
0.36835717
0.3563988
0.34505433
0.3342841
0.32404961
0.31431157
0.30502952
0.29616196
0.28766703
0.27950324
0.27163029
0.2640096
0.25660486
0.24938237
0.24231112
0.23536299
0.22851263
0.22173743
0.21501736
0.20833485
0.20167458
0.1950233
0.18836968
0.18170407
0.17501839
0.16830595
0.16156123
0.15477986
0.14795841
0.14109429
0.13418569
0.12723144
0.12023095
0.11318416
0.10609147
0.098953688
0.091772002
0.084547967
0.077283434
0.069980609
0.062642039
0.055270604
0.047869655
0.040443181
0.032995839
0.02553566
0.018068499
0.010600966
0.0030647944
3.5337363
2.8332822
2.4245996
2.2543282
2.1462955
2.0697735
2.0219377
1.9912371
1.9688404
1.9507172
1.9349163
1.9203229
1.9063067
1.8925106
1.878713
1.8647592
1.8505287
1.8359166
1.8208229
1.8051442
1.7887686
1.771571
1.7534108
1.7341317
1.7135646
1.6915354
1.6678787
1.6424593
1.615201
1.5861201
1.5553553
1.5231835
1.4899781
1.4561187
1.4219268
1.3876502
1.3534672
1.3194937
1.285793
1.2523863
1.2192625
1.1863859
1.1537027
1.1211464
1.088645
1.0561272
1.0235296
0.99080543
0.95793161
0.92491342
0.89178771
0.85862249
0.82551438
0.79258534
0.75997966
0.72786202
0.69641578
0.66583891
0.63633625
0.60810641
0.58132161
0.55610316
0.53249946
0.51048096
0.48995818
0.47080883
0.45289973
0.43610127
0.42029679
0.4053871
0.39129092
0.37794259
0.36528816
0.35328117
0.34187902
0.33104034
0.32072347
0.31088627
0.30148625
0.29248105
0.28382913
0.27549035
0.26742642
0.2596014
0.25198184
0.24453695
0.23723868
0.23006166
0.22298308
0.21598265
0.20904239
0.20214645
0.19528099
0.18843404
0.1815952
0.17475564
0.16790788
0.16104561
0.15416363
0.14725774
0.14032453
0.13336142
0.12636651
0.11933847
0.11227657
0.10518055
0.098050552
0.090887179
0.083691383
0.07646443
0.069207942
0.061923867
0.054614464
0.047282411
0.039930974
0.032563973
0.025188695
0.017809579
0.010431693
0.0029702272
3.4784124
2.7986257
2.4047749
2.2413414
2.1375373
2.0640976
2.0180267
1.9881205
1.9659951
1.9478544
1.9318592
1.9169601
1.9025646
1.8883364
1.8740664
1.8596086
1.8448492
1.8296901
1.8140389
1.7978021
1.7808806
1.7631671
1.7445445
1.7248867
1.7040628
1.6819431
1.6584115
1.6333802
1.60681
1.57873
1.5492537
1.5185817
1.4869769
1.4547137
1.4220377
1.3891482
1.3561968
1.3232895
1.2904916
1.2578346
1.2253226
1.192939
1.1606512
1.1284163
1.0961866
1.0639158
1.0315648
0.99910892
0.9665432
0.93388645
0.90118349
0.8685048
0.83594412
0.80361563
0.77165079
0.74019547
0.70940726
0.67945092
0.6504913
0.62268331
0.59615812
0.57100784
0.54727351
0.52494238
0.50395787
0.48423627
0.46568156
0.44819637
0.43168951
0.41607992
0.40129782
0.38728376
0.3739862
0.36135884
0.34935819
0.33794179
0.32706716
0.3166917
0.30677286
0.29726856
0.28813773
0.27934083
0.2708402
0.26260041
0.25458852
0.24677405
0.23912915
0.23162849
0.22424917
0.21697063
0.20977456
0.20264462
0.19556643
0.18852737
0.18151636
0.17452382
0.16754149
0.16056228
0.15358019
0.14659022
0.13958817
0.1325707
0.12553515
0.11847947
0.11140223
0.10430249
0.09717978
0.090034056
0.082865678
0.075675322
0.068464022
0.061233123
0.053984252
0.046719412
0.039441118
0.032152337
0.024859508
0.017565753
0.0102739
0.0028884173
3.4075718
2.7554535
2.3811762
2.2266367
2.1283365
2.0588794
2.0150705
1.9861916
1.964441
1.9463216
1.9301382
1.9149249
1.9001377
1.8854672
1.8707205
1.8557626
1.8404886
1.8248083
1.8086378
1.7918937
1.7744895
1.7563338
1.73733
1.717377
1.6963735
1.6742231
1.6508437
1.6261783
1.600208
1.5729642
1.5445364
1.5150714
1.4847574
1.4537947
1.4223701
1.3906428
1.3587397
1.326755
1.2947528
1.2627703
1.2308229
1.1989082
1.1670112
1.1351079
1.103171
1.0711745
1.0390992
1.0069378
0.97469969
0.94241362
0.91012958
0.87791832
0.84586919
0.81408778
0.7826927
0.75181254
0.72158277
0.69214136
0.66362284
0.63615077
0.6098283
0.58472863
0.56088817
0.53830516
0.51694542
0.49675269
0.47765855
0.45959042
0.44247742
0.42625382
0.41086028
0.39624378
0.38235627
0.36915301
0.35659114
0.34462846
0.33322282
0.32233216
0.31191462
0.30192897
0.29233509
0.28309436
0.27416999
0.26552731
0.25713399
0.24895999
0.24097774
0.23316202
0.22548988
0.21794057
0.21049545
0.20313775
0.19585255
0.18862662
0.18144821
0.174307
0.16719399
0.1601013
0.15302215
0.14595073
0.13888208
0.13181209
0.12473735
0.1176551
0.1105632
0.10346007
0.096344585
0.089216102
0.082074389
0.074919548
0.067752042
0.060572635
0.053382348
0.046182527
0.038974952
0.03176175
0.024548441
0.017336979
0.010127168
0.0028196219
3.3222379
2.7047881
2.3546314
2.2108363
2.1191475
2.0544177
2.0132473
1.9855512
1.9642307
1.9461414
1.9297571
1.9142101
1.8990126
1.8838866
1.8686577
1.8532035
1.8374283
1.8212506
1.8045946
1.7873865
1.7695512
1.751011
1.7316861
1.7114953
1.6903597
1.6682069
1.6449782
1.6206358
1.5951712
1.5686132
1.5410309
1.5125322
1.4832538
1.4533432
1.4229429
1.3921791
1.3611572
1.3299596
1.2986469
1.2672593
1.2358197
1.2043372
1.1728104
1.1412309
1.1095879
1.0778724
1.0460807
1.0142196
0.98230939
0.95038594
0.91850228
0.88672795
0.85514723
0.82385696
0.79296372
0.76258067
0.7328247
0.70381246
0.67565546
0.64845459
0.62229362
0.59723314
0.5733066
0.55051964
0.52885345
0.50827135
0.48872534
0.4701618
0.45252605
0.43576505
0.41982875
0.40467038
0.39024592
0.37651312
0.36343075
0.35095789
0.33905358
0.32767695
0.31678743
0.30634506
0.296311
0.28664781
0.27731974
0.26829305
0.25953608
0.25101934
0.24271557
0.23459971
0.22664879
0.2188419
0.21116006
0.20358611
0.19610461
0.18870171
0.18136499
0.17408345
0.16684731
0.15964794
0.15247777
0.14533024
0.1381996
0.13108098
0.12397027
0.11686398
0.10975932
0.10265404
0.095546416
0.088435223
0.081319671
0.074199322
0.067074115
0.059944283
0.052810297
0.045672908
0.038533216
0.031392567
0.024255537
0.017123113
0.0099913157
0.0027644527
3.2237202
2.6479155
2.3261379
2.1946582
2.1104683
2.0510121
2.0127089
1.986259
1.9653679
1.9472828
1.9306646
1.9147532
1.8991217
1.8835253
1.8678089
1.8518627
1.8356004
1.8189481
1.8018376
1.7842033
1.7659796
1.7471002
1.7274983
1.707108
1.6858671
1.6637201
1.6406238
1.616552
1.5915013
1.5654953
1.5385869
1.5108556
1.4824015
1.4533345
1.4237635
1.3937888
1.3634975
1.332961
1.3022355
1.2713622
1.2403691
1.2092739
1.1780858
1.1468092
1.1154466
1.0840023
1.0524854
1.0209134
0.98931483
0.95773069
0.9262155
0.89483685
0.86367372
0.83281472
0.80235552
0.77239603
0.74303777
0.71438049
0.68651822
0.65953532
0.63350194
0.60847005
0.58447119
0.561516
0.53959638
0.51868963
0.49876286
0.47977694
0.46168998
0.44445943
0.42804324
0.41240061
0.39749169
0.38327725
0.36971834
0.35677594
0.3444108
0.33258374
0.3212558
0.31038859
0.29994472
0.28988808
0.28018408
0.27079991
0.26170467
0.25286941
0.24426721
0.23587315
0.22766424
0.21961939
0.21171932
0.20394644
0.19628477
0.18871987
0.18123867
0.17382944
0.1664817
0.15918604
0.15193415
0.14471869
0.1375332
0.13037206
0.12323045
0.11610424
0.10898996
0.10188479
0.094786411
0.087693067
0.080603459
0.073516676
0.066432197
0.059349808
0.052269522
0.045191597
0.03811656
0.031045093
0.023980866
0.016924135
0.0098665495
0.0027237429
3.1136649
2.5864137
2.2968518
2.1788889
2.1028098
2.0489334
2.0135555
1.988314
1.9677929
1.9496527
1.93275
1.9164357
1.9003444
1.8842641
1.8680581
1.851628
1.8348954
1.8177926
1.800258
1.782232
1.7636567
1.7444744
1.7246285
1.7040643
1.6827314
1.6605861
1.6375952
1.6137394
1.5890168
1.5634459
1.5370661
1.5099363
1.4821305
1.4537313
1.4248225
1.3954839
1.3657878
1.335796
1.30556
1.275121
1.2445104
1.2137518
1.1828632
1.1518585
1.120751
1.0895555
1.058291
1.0269834
0.9956672
0.96438688
0.93319758
0.90216453
0.87136167
0.84087017
0.81077625
0.78116866
0.75213643
0.72376603
0.69613825
0.6693253
0.64338764
0.61837129
0.59430649
0.57120743
0.54907352
0.52789218
0.50764169
0.48829399
0.46981721
0.45217733
0.43533928
0.41926762
0.40392665
0.38928034
0.37529231
0.36192576
0.34914347
0.33690814
0.32518259
0.3139301
0.30311479
0.29270189
0.28265792
0.27295101
0.26355096
0.2544293
0.2455594
0.23691645
0.22847737
0.22022088
0.21212735
0.20417872
0.1963585
0.18865165
0.18104443
0.17352444
0.16608045
0.15870234
0.15138107
0.14410858
0.1368777
0.12968214
0.12251642