/*--------------------------------*- C++ -*----------------------------------*\
| =========                 |                                                 |
| \\      /  F ield         | OpenFOAM: The Open Source CFD Toolbox           |
|  \\    /   O peration     | Version:  2412                                  |
|   \\  /    A nd           | Website:  www.openfoam.com                      |
|    \\/     M anipulation  |                                                 |
\*---------------------------------------------------------------------------*/
FoamFile
{
    version     2.0;
    format      ascii;
    arch        "LSB;label=32;scalar=64";
    class       volScalarField;
    location    "56";
    object      T;
}
// * * * * * * * * * * * * * * * * * * * * * * * * * * * * * * * * * * * * * //

dimensions      [0 0 0 1 0 0 0];

internalField   nonuniform List<scalar> 
195128
(
293.498
293.498
293.498
293.498
293.498
293.498
293.498
293.498
293.498
293.498
293.498
293.498
293.498
293.498
293.49801
293.49803
293.49809
293.49823
293.4986
293.4995
293.50168
293.50686
293.51882
293.54554
293.60318
293.72209
293.95342
294.36651
295.0111
295.81679
296.63764
297.46211
298.36309
299.35808
300.45162
301.6351
302.89304
304.20767
305.5616
306.939
308.32599
309.71058
311.0825
312.43301
313.7548
315.04186
316.28941
317.49377
318.65222
319.76256
320.82279
321.83281
322.7935
323.70622
324.57231
325.39213
326.16337
326.87776
327.51739
328.05644
328.46819
328.73876
328.86107
328.83451
328.66657
328.3728
327.9746
327.49598
326.95856
326.3805
325.77555
325.15386
324.52301
323.88889
323.25638
322.62975
322.0128
321.40902
320.82145
320.25271
319.7049
319.17976
318.67833
318.20109
317.7481
317.31911
316.91361
316.53073
316.16945
315.82866
315.5072
315.2039
314.91756
314.647
314.39111
314.14886
313.91927
313.70138
313.49432
313.29725
313.1094
312.93005
312.7585
312.59415
312.4364
312.28474
312.13864
311.99763
311.86123
311.72901
311.60055
311.47544
311.35333
311.23394
311.11717
311.00341
310.89408
310.79292
310.70824
310.65614
293.498
293.498
293.498
293.498
293.498
293.498
293.498
293.498
293.498
293.498
293.498
293.498
293.498
293.498
293.49801
293.49802
293.49806
293.49815
293.49839
293.499
293.50047
293.50398
293.51209
293.53015
293.56884
293.6482
293.80369
294.09124
294.57018
295.21697
295.89174
296.55631
297.26504
298.08163
299.01433
300.05855
301.20128
302.42533
303.71239
305.0447
306.40581
307.78075
309.15629
310.52094
311.86495
313.18024
314.46033
315.70014
316.89588
318.0446
319.1429
320.19019
321.18733
322.13582
323.0374
323.89354
324.70428
325.4662
326.16819
326.79008
327.30948
327.70588
327.95587
328.04006
327.95315
327.70866
327.33278
326.85939
326.31861
325.73348
325.12092
324.493
323.85827
323.22299
322.59196
321.96919
321.35812
320.76184
320.18305
319.62406
319.08675
318.57243
318.08195
317.6157
317.17366
316.75547
316.36052
315.98796
315.63688
315.30604
314.99425
314.70036
314.4232
314.16151
313.9142
313.68028
313.45879
313.24878
313.04935
312.8597
312.67904
312.50665
312.34184
312.184
312.03257
311.88703
311.74686
311.61159
311.48075
311.35391
311.23063
311.11052
310.99319
310.87832
310.7657
310.65546
310.54852
310.44777
310.36059
310.30347
293.498
293.498
293.498
293.498
293.498
293.498
293.498
293.498
293.498
293.498
293.498
293.498
293.498
293.498
293.498
293.49801
293.49803
293.49808
293.49821
293.49855
293.49937
293.50133
293.50586
293.51591
293.53722
293.58056
293.666
293.8323
294.14531
294.62818
295.16538
295.69088
296.24472
296.89007
297.64652
298.51789
299.49862
300.57714
301.73871
302.96726
304.24649
305.56015
306.89283
308.2306
309.56118
310.87401
312.16031
313.41305
314.62676
315.79711
316.91981
317.99273
319.01603
319.99068
320.91829
321.80067
322.63916
323.43335
324.1798
324.86479
325.46756
325.96523
326.32175
326.49862
326.47247
326.25471
325.88294
325.39749
324.83594
324.22834
323.59636
322.95472
322.31313
321.67799
321.05368
320.4434
319.84967
319.27457
318.71986
318.18701
317.67714
317.19099
316.72897
316.29111
315.87712
315.48645
315.11834
314.77184
314.44591
314.13939
313.85111
313.57992
313.32473
313.08451
312.85805
312.6443
312.44232
312.25116
312.06995
311.89788
311.73421
311.57821
311.42909
311.2864
311.14961
311.01822
310.89172
310.76965
310.65154
310.53697
310.4255
310.31672
310.21023
310.10565
310.00266
309.90099
309.80126
309.70568
309.62032
309.56127
293.498
293.498
293.498
293.498
293.498
293.498
293.498
293.498
293.498
293.498
293.498
293.498
293.498
293.498
293.498
293.49801
293.49801
293.49804
293.4981
293.49827
293.49868
293.49968
293.50197
293.50706
293.51783
293.53981
293.58428
293.67728
293.87613
294.23711
294.6692
295.09918
295.54566
296.06294
296.67875
297.40252
298.23494
299.1701
300.19777
301.30516
302.47819
303.70079
304.95724
306.23283
307.51395
308.78829
310.04527
311.27613
312.47384
313.63268
314.74711
315.81431
316.83323
317.80386
318.72706
319.60416
320.43642
321.22393
321.9641
322.65122
323.26795
323.78238
324.14647
324.31346
324.26527
324.01432
323.59776
323.0639
322.45763
321.81382
321.1566
320.50147
319.85781
319.2311
318.62446
318.03966
317.47779
316.93956
316.42545
315.93577
315.47066
315.03008
314.61376
314.22126
313.85191
313.5049
313.17929
312.87401
312.58796
312.31997
312.06887
311.83353
311.61284
311.40573
311.21117
311.02817
310.85582
310.69333
310.5398
310.39448
310.25668
310.12578
310.00128
309.88245
309.7687
309.65951
309.5544
309.4529
309.35456
309.25896
309.16568
309.07431
308.98443
308.89563
308.80757
308.72019
308.6336
308.54918
308.47182
308.41613
293.498
293.498
293.498
293.498
293.498
293.498
293.498
293.498
293.498
293.498
293.498
293.498
293.498
293.498
293.498
293.498
293.49801
293.49802
293.49805
293.49813
293.49832
293.4988
293.49991
293.50239
293.50771
293.51888
293.54288
293.59868
293.73578
294.02104
294.38559
294.74711
295.11517
295.53923
296.0503
296.66077
297.37522
298.19171
299.10344
300.10034
301.17036
302.29862
303.46985
304.6692
305.88254
307.09654
308.2995
309.48147
310.63421
311.75057
312.82352
313.85057
314.82964
315.75981
316.64106
317.47387
318.2586
318.99429
319.67678
320.29627
320.83423
321.26052
321.52776
321.59052
321.43235
321.07457
320.56468
319.95707
319.29861
318.62329
317.95305
317.30071
316.67306
316.07321
315.5022
314.96002
314.44615
313.95991
313.50055
313.06735
312.65955
312.27638
311.91701
311.58053
311.26599
310.97233
310.69848
310.44328
310.2056
309.9843
309.77822
309.58628
309.4074
309.24059
309.08486
308.93931
308.80309
308.67539
308.55547
308.44261
308.33617
308.23557
308.14025
308.04965
307.96324
307.88053
307.80109
307.72445
307.6502
307.57792
307.50722
307.43769
307.36893
307.30054
307.23214
307.16345
307.09444
307.02601
306.9619
306.91429
293.498
293.498
293.498
293.498
293.498
293.498
293.498
293.498
293.498
293.498
293.498
293.498
293.498
293.498
293.498
293.498
293.498
293.49801
293.49802
293.49806
293.49815
293.49837
293.49889
293.5001
293.50276
293.50866
293.52252
293.5588
293.65967
293.89509
294.21237
294.52559
294.83776
295.19511
295.62976
296.1556
296.77961
297.5024
298.31955
299.22281
300.20115
301.24128
302.32858
303.44799
304.58476
305.72508
306.85659
307.96863
309.05185
310.09666
311.09691
312.0498
312.95295
313.80504
314.60543
315.35365
316.04867
316.68754
317.26314
317.76125
318.15806
318.4201
318.5048
318.38179
318.05426
317.55967
316.95287
316.28717
315.60361
314.9291
314.27911
313.66126
313.07838
312.53064
312.01691
311.53551
311.08465
310.66264
310.26792
309.89908
309.55484
309.23399
308.9354
308.65792
308.40044
308.16184
307.941
307.73681
307.54817
307.37398
307.21321
307.06484
306.92789
306.80144
306.68462
306.57658
306.47657
306.38384
306.29771
306.21754
306.14274
306.07275
306.00705
305.94514
305.88656
305.83085
305.7776
305.72641
305.67687
305.6286
305.58123
305.53437
305.48766
305.4407
305.39313
305.34462
305.29502
305.24486
305.19682
305.16018
293.498
293.498
293.498
293.498
293.498
293.498
293.498
293.498
293.498
293.498
293.498
293.498
293.498
293.498
293.498
293.498
293.498
293.498
293.49801
293.49802
293.49806
293.49817
293.49842
293.499
293.50037
293.50364
293.51213
293.53682
293.6123
293.80518
294.07999
294.35335
294.62245
294.93038
295.30739
295.76765
296.31942
296.96493
297.70123
298.5213
299.41489
300.3693
301.37021
302.40249
303.45115
304.50206
305.54259
306.56161
307.54853
308.49026
309.38478
310.22893
311.02073
311.75891
312.44237
313.06959
313.63772
314.14102
314.56849
314.90104
315.11061
315.16556
315.03819
314.72337
314.24758
313.65917
313.01062
312.34511
311.6919
311.06776
310.48058
309.93275
309.42366
308.95124
308.5129
308.10606
307.72828
307.37746
307.05174
306.74949
306.46929
306.20987
305.97001
305.74862
305.54461
305.35694
305.18459
305.02656
304.88189
304.74963
304.62888
304.51874
304.41839
304.32701
304.24386
304.1682
304.09936
304.0367
303.97962
303.92754
303.87994
303.83632
303.7962
303.75914
303.72472
303.69252
303.66217
303.6333
303.60554
303.57853
303.55194
303.52541
303.4986
303.47116
303.44274
303.41303
303.38183
303.3494
303.31749
303.29253
293.498
293.498
293.498
293.498
293.498
293.498
293.498
293.498
293.498
293.498
293.498
293.498
293.498
293.498
293.498
293.498
293.498
293.498
293.498
293.49801
293.49803
293.49808
293.49819
293.49848
293.49921
293.50109
293.50643
293.52324
293.57778
293.72628
293.95178
294.18311
294.41279
294.68006
295.00859
295.41181
295.89826
296.47102
297.12809
297.86319
298.6666
299.52595
300.42703
301.3548
302.29426
303.23147
304.1541
305.0509
305.90798
306.71484
307.47266
308.17886
308.83182
309.43018
309.97224
310.45529
310.87451
311.22139
311.48155
311.63318
311.64999
311.51332
311.21903
310.78543
310.25055
309.65941
309.05177
308.45605
307.88911
307.35896
306.86792
306.41513
305.99818
305.61412
305.25998
304.93307
304.63102
304.35181
304.09371
303.85526
303.63517
303.43231
303.24566
303.07425
302.91718
302.77358
302.64263
302.5235
302.41542
302.31761
302.22935
302.14993
302.07865
302.01488
301.95797
301.90735
301.86244
301.82271
301.78766
301.75681
301.72969
301.70588
301.68497
301.66657
301.65031
301.63584
301.62279
301.61086
301.59971
301.58902
301.57849
301.5678
301.55665
301.54472
301.53171
301.51733
301.50138
301.48393
301.466
301.45157
293.498
293.498
293.498
293.498
293.498
293.498
293.498
293.498
293.498
293.498
293.498
293.498
293.498
293.498
293.498
293.498
293.498
293.498
293.498
293.498
293.49801
293.49803
293.49809
293.49824
293.49863
293.49972
293.50306
293.51405
293.5504
293.65174
293.81731
293.99921
294.18782
294.41508
294.69483
295.03886
295.45529
295.94748
296.51404
297.14934
297.84417
298.58663
299.36293
300.15853
300.95915
301.75199
302.52633
303.27148
303.9693
304.62371
305.23117
305.78917
306.29581
306.7492
307.14693
307.48554
307.75922
307.95844
308.06859
308.07041
307.94675
307.69724
307.33678
306.89288
306.39949
305.8887
305.38513
304.90452
304.45502
304.03947
303.65751
303.30716
302.98575
302.69053
302.41895
302.16874
301.93799
301.72509
301.52867
301.34759
301.18084
301.02755
300.88693
300.75824
300.6408
300.53395
300.43706
300.34952
300.27074
300.20013
300.13715
300.08125
300.03192
299.98864
299.95094
299.91836
299.89045
299.86679
299.84697
299.83062
299.81736
299.80684
299.79872
299.79267
299.78839
299.78558
299.78393
299.78317
299.78301
299.7832
299.78344
299.78349
299.78306
299.78191
299.77976
299.77636
299.77153
299.76522
299.75795
299.75177
293.498
293.498
293.498
293.498
293.498
293.498
293.498
293.498
293.498
293.498
293.498
293.498
293.498
293.498
293.498
293.498
293.498
293.498
293.498
293.498
293.49801
293.49801
293.49804
293.49812
293.49833
293.49896
293.50098
293.50773
293.52969
293.58989
293.69561
293.82485
293.97095
294.14982
294.37149
294.64536
294.97841
295.37389
295.83089
296.34453
296.90653
297.50601
298.13038
298.76646
299.40181
300.02635
300.63307
301.21136
301.75734
302.26755
302.73622
303.15924
303.53449
303.8597
304.13222
304.34947
304.50643
304.59545
304.60597
304.52638
304.35083
304.08846
303.7589
303.38629
302.99434
302.60265
302.22495
301.86922
301.53906
301.2351
300.95627
300.70069
300.46624
300.25083
300.05258
299.86989
299.70137
299.5459
299.40251
299.27041
299.14888
299.03731
298.93516
298.84189
298.75704
298.68013
298.61073
298.54839
298.4927
298.44324
298.39963
298.36146
298.32837
298.29999
298.27597
298.25596
298.23964
298.22669
298.21681
298.20969
298.20507
298.20266
298.2022
298.20343
298.20611
298.21
298.21485
298.22043
298.22652
298.2329
298.23934
298.24561
298.25151
298.25681
298.2613
298.26478
298.26706
298.26807
298.26796
298.26747
293.498
293.498
293.498
293.498
293.498
293.498
293.498
293.498
293.498
293.498
293.498
293.498
293.498
293.498
293.498
293.498
293.498
293.498
293.498
293.498
293.498
293.49801
293.49802
293.49806
293.49817
293.49852
293.49969
293.50357
293.51584
293.54858
293.60943
293.69206
293.79331
293.91956
294.07737
294.27362
294.51395
294.80143
295.13589
295.51379
295.92862
296.37152
296.83216
297.29979
297.76465
298.21999
298.66274
299.08596
299.49165
299.87309
300.2238
300.53839
300.81263
301.04305
301.2268
301.3631
301.44852
301.47899
301.44938
301.35543
301.19786
300.98664
300.73743
300.46679
300.18934
299.91639
299.65546
299.41072
299.18382
298.9748
298.78276
298.60638
298.44422
298.29491
298.15724
298.03016
297.9128
297.80443
297.70443
297.61229
297.52757
297.44986
297.37881
297.31408
297.25535
297.20231
297.15467
297.11214
297.07444
297.04129
297.01242
296.98756
296.96645
296.94886
296.93451
296.92319
296.91466
296.90869
296.90507
296.90358
296.90401
296.90617
296.90985
296.91487
296.92104
296.92818
296.93609
296.94461
296.95356
296.96276
296.97203
296.98121
296.99012
296.99859
297.00645
297.01355
297.01973
297.02488
297.02897
297.03192
293.498
293.498
293.498
293.498
293.498
293.498
293.498
293.498
293.498
293.498
293.498
293.498
293.498
293.498
293.498
293.498
293.498
293.498
293.498
293.498
293.498
293.498
293.49801
293.49803
293.49809
293.49828
293.49891
293.501
293.50741
293.52408
293.55641
293.60433
293.6672
293.74733
293.84824
293.97411
294.12885
294.3151
294.5335
294.78233
295.0576
295.35341
295.66258
295.97743
296.29085
296.59788
296.89664
297.18484
297.46426
297.73055
297.97845
298.20319
298.4005
298.56662
298.69822
298.79252
298.84787
298.86283
298.83593
298.76686
298.6584
298.518
298.35577
298.18181
298.00463
297.83067
297.66419
297.50757
297.3618
297.22693
297.10247
296.98768
296.88174
296.78388
296.69338
296.60964
296.53217
296.46055
296.39441
296.33346
296.27744
296.22612
296.17927
296.1367
296.09821
296.06362
296.03273
296.00537
295.98136
295.96052
295.94267
295.92765
295.91529
295.90541
295.89787
295.89249
295.88913
295.88763
295.88784
295.88962
295.89282
295.89731
295.90294
295.90957
295.91708
295.92534
295.93419
295.94353
295.95321
295.9631
295.97307
295.98301
295.99276
296.00221
296.01123
296.0197
296.0275
296.03453
296.04063
296.04529
293.498
293.498
293.498
293.498
293.498
293.498
293.498
293.498
293.498
293.498
293.498
293.498
293.498
293.498
293.498
293.498
293.498
293.498
293.498
293.498
293.498
293.498
293.498
293.49801
293.49804
293.49814
293.49847
293.49952
293.50265
293.51065
293.52665
293.55208
293.58745
293.63378
293.69267
293.76616
293.85639
293.96509
294.09307
294.23992
294.40385
294.58184
294.7699
294.96345
295.15798
295.34973
295.536
295.7196
295.89927
296.07235
296.23572
296.38625
296.52094
296.63687
296.73134
296.8019
296.84657
296.86432
296.855
296.81948
296.76027
296.682
296.59048
296.49143
296.38964
296.28878
296.19135
296.09886
296.01203
295.93105
295.85579
295.78593
295.72112
295.66097
295.60515
295.55335
295.50532
295.46086
295.41978
295.38194
295.34719
295.31542
295.2865
295.26034
295.23681
295.21582
295.19725
295.181
295.16697
295.15504
295.14512
295.1371
295.13087
295.12632
295.12337
295.12191
295.12183
295.12305
295.12547
295.12898
295.13349
295.13892
295.14517
295.15214
295.15974
295.16789
295.17648
295.18543
295.19465
295.20403
295.21349
295.22294
295.23228
295.24141
295.25025
295.25871
295.2667
295.27413
295.2808
295.28601
293.498
293.498
293.498
293.498
293.498
293.498
293.498
293.498
293.498
293.498
293.498
293.498
293.498
293.498
293.498
293.498
293.498
293.498
293.498
293.498
293.498
293.498
293.498
293.49801
293.49802
293.49807
293.49823
293.49872
293.50016
293.50378
293.51118
293.52359
293.54177
293.56637
293.59811
293.63787
293.6866
293.74512
293.81396
293.89315
293.98208
294.07955
294.18376
294.29251
294.40342
294.51422
294.62307
294.73252
294.84059
294.94563
295.04607
295.14013
295.22601
295.30191
295.36605
295.41681
295.45283
295.47315
295.47756
295.46663
295.44193
295.40596
295.36176
295.31236
295.26034
295.20775
295.15606
295.10625
295.05885
295.01413
294.97215
294.93285
294.89613
294.86186
294.8299
294.80016
294.77252
294.74691
294.72325
294.70147
294.68153
294.66337
294.64694
294.63217
294.61903
294.60745
294.59738
294.58877
294.58155
294.57567
294.57107
294.56768
294.56545
294.56432
294.56423
294.56512
294.56692
294.56958
294.57304
294.57724
294.58212
294.58762
294.59368
294.60023
294.60723
294.61461
294.6223
294.63025
294.63839
294.64666
294.65499
294.66332
294.67158
294.67972
294.68766
294.69535
294.70271
294.70968
294.71606
294.7211
293.498
293.498
293.498
293.498
293.498
293.498
293.498
293.498
293.498
293.498
293.498
293.498
293.498
293.498
293.498
293.498
293.498
293.498
293.498
293.498
293.498
293.498
293.498
293.498
293.49801
293.49803
293.4981
293.49832
293.49895
293.50049
293.5037
293.50931
293.51789
293.52992
293.54579
293.56588
293.59057
293.62019
293.65496
293.69492
293.73992
293.7895
293.843
293.8995
293.95793
294.01707
294.07717
294.13813
294.19892
294.25855
294.31628
294.37118
294.42225
294.46849
294.50891
294.54257
294.56866
294.5866
294.59613
294.59743
294.59118
294.57855
294.561
294.53999
294.51683
294.4926
294.46815
294.44404
294.42068
294.39828
294.37698
294.35683
294.33783
294.31997
294.30324
294.28761
294.27307
294.25959
294.24716
294.23576
294.22538
294.216
294.2076
294.20017
294.19368
294.18811
294.18344
294.17964
294.17667
294.17452
294.17314
294.17252
294.17261
294.17339
294.17482
294.17687
294.1795
294.18268
294.18638
294.19055
294.19517
294.2002
294.20559
294.21132
294.21734
294.22362
294.23012
294.23679
294.2436
294.2505
294.25745
294.26441
294.27133
294.27817
294.28489
294.29144
294.29778
294.30385
294.30947
294.31395
293.498
293.498
293.498
293.498
293.498
293.498
293.498
293.498
293.498
293.498
293.498
293.498
293.498
293.498
293.498
293.498
293.498
293.498
293.498
293.498
293.498
293.498
293.498
293.498
293.498
293.49801
293.49804
293.49814
293.49839
293.49902
293.50033
293.50268
293.50644
293.51188
293.51924
293.52872
293.54049
293.55468
293.57135
293.59052
293.61214
293.63604
293.66197
293.68959
293.71848
293.74826
293.77927
293.81106
293.8431
293.87487
293.906
293.93605
293.96449
293.9908
294.01446
294.03499
294.05194
294.06501
294.074
294.07893
294.08003
294.07777
294.07277
294.06568
294.05712
294.0476
294.03757
294.02734
294.01717
294.00721
293.99758
293.98834
293.97954
293.9712
293.96335
293.956
293.94915
293.94283
293.93703
293.93176
293.92702
293.92281
293.91913
293.91599
293.91336
293.91126
293.90966
293.90856
293.90794
293.9078
293.90811
293.90888
293.91007
293.91167
293.91367
293.91605
293.91879
293.92188
293.92528
293.92899
293.93298
293.93723
293.94172
293.94643
293.95133
293.9564
293.96162
293.96696
293.97239
293.97789
293.98343
293.98899
293.99452
294.00001
294.00542
294.01074
294.01591
294.0209
294.02557
294.02931
293.498
293.498
293.498
293.498
293.498
293.498
293.498
293.498
293.498
293.498
293.498
293.498
293.498
293.498
293.498
293.498
293.498
293.498
293.498
293.498
293.498
293.498
293.498
293.498
293.498
293.49801
293.49802
293.49806
293.49815
293.49839
293.4989
293.49983
293.50136
293.50365
293.50682
293.51101
293.51628
293.52269
293.53029
293.53906
293.54899
293.56001
293.57202
293.5849
293.59849
293.61278
293.62784
293.64346
293.65939
293.67536
293.6912
293.70669
293.72161
293.73567
293.74864
293.76026
293.77032
293.77865
293.78515
293.78978
293.79261
293.7938
293.79358
293.79223
293.78999
293.78711
293.7838
293.78021
293.77649
293.77273
293.769
293.76536
293.76185
293.75849
293.75532
293.75235
293.7496
293.74709
293.74482
293.7428
293.74106
293.73958
293.73837
293.73745
293.7368
293.73644
293.73635
293.73654
293.737
293.73773
293.73873
293.73998
293.74148
293.74323
293.74521
293.74742
293.74984
293.75248
293.75532
293.75834
293.76155
293.76491
293.76844
293.7721
293.77589
293.77979
293.7838
293.78788
293.79203
293.79623
293.80047
293.80472
293.80896
293.81319
293.81737
293.82149
293.82553
293.82946
293.83315
293.83612
293.498
293.498
293.498
293.498
293.498
293.498
293.498
293.498
293.498
293.498
293.498
293.498
293.498
293.498
293.498
293.498
293.498
293.498
293.498
293.498
293.498
293.498
293.498
293.498
293.498
293.498
293.49801
293.49802
293.49806
293.49815
293.49833
293.49868
293.49927
293.50016
293.50145
293.50317
293.50539
293.50812
293.5114
293.51522
293.51958
293.52444
293.52977
293.53552
293.54164
293.54817
293.55513
293.56243
293.56995
293.57757
293.58522
293.59281
293.60022
293.60734
293.61404
293.62022
293.62576
293.63058
293.63464
293.63789
293.64035
293.64206
293.64311
293.64359
293.6436
293.64325
293.64262
293.64179
293.64083
293.63978
293.63869
293.63759
293.63651
293.63547
293.63449
293.63358
293.63276
293.63204
293.63143
293.63094
293.63057
293.63034
293.63025
293.6303
293.6305
293.63084
293.63134
293.63199
293.63278
293.63373
293.63482
293.63606
293.63745
293.63898
293.64065
293.64245
293.64439
293.64645
293.64864
293.65094
293.65335
293.65587
293.65849
293.6612
293.664
293.66687
293.66981
293.6728
293.67585
293.67893
293.68204
293.68517
293.6883
293.69143
293.69454
293.69761
293.70064
293.7036
293.7064
293.70865
293.498
293.498
293.498
293.498
293.498
293.498
293.498
293.498
293.498
293.498
293.498
293.498
293.498
293.498
293.498
293.498
293.498
293.498
293.498
293.498
293.498
293.498
293.498
293.498
293.498
293.498
293.498
293.49801
293.49802
293.49805
293.49812
293.49824
293.49845
293.49879
293.49927
293.49994
293.50082
293.50192
293.50326
293.50483
293.50665
293.5087
293.51096
293.51341
293.51604
293.5189
293.52198
293.52523
293.52862
293.5321
293.53563
293.53917
293.54268
293.54611
293.54941
293.55251
293.55538
293.55798
293.56027
293.56225
293.56389
293.56523
293.56626
293.56704
293.56759
293.56796
293.56818
293.56828
293.5683
293.56825
293.56816
293.56804
293.56792
293.5678
293.56769
293.56761
293.56757
293.56756
293.56761
293.56771
293.56786
293.56809
293.56838
293.56875
293.56919
293.56971
293.57031
293.571
293.57176
293.57261
293.57354
293.57456
293.57566
293.57685
293.57811
293.57946
293.58089
293.58239
293.58397
293.58563
293.58735
293.58914
293.591
293.59292
293.59489
293.59691
293.59899
293.6011
293.60325
293.60543
293.60763
293.60985
293.61208
293.61432
293.61654
293.61876
293.62095
293.6231
293.62514
293.62678
293.498
293.498
293.498
293.498
293.498
293.498
293.498
293.498
293.498
293.498
293.498
293.498
293.498
293.498
293.498
293.498
293.498
293.498
293.498
293.498
293.498
293.498
293.498
293.498
293.498
293.498
293.498
293.498
293.49801
293.49802
293.49804
293.49808
293.49816
293.49827
293.49845
293.49869
293.49902
293.49944
293.49995
293.50057
293.50129
293.50211
293.50302
293.50403
293.50511
293.50631
293.50761
293.509
293.51046
293.51198
293.51354
293.51512
293.51672
293.5183
293.51984
293.52133
293.52275
293.52406
293.52527
293.52636
293.52732
293.52816
293.52888
293.5295
293.53001
293.53044
293.5308
293.5311
293.53135
293.53157
293.53176
293.53193
293.53209
293.53225
293.53242
293.53259
293.53277
293.53298
293.5332
293.53345
293.53373
293.53405
293.5344
293.53478
293.53521
293.53568
293.53619
293.53675
293.53735
293.538
293.53869
293.53944
293.54023
293.54108
293.54197
293.54291
293.5439
293.54494
293.54602
293.54715
293.54833
293.54955
293.55081
293.55211
293.55345
293.55483
293.55624
293.55768
293.55915
293.56064
293.56215
293.56367
293.56521
293.56675
293.5683
293.56984
293.57138
293.57289
293.57433
293.57549
293.498
293.498
293.498
293.498
293.498
293.498
293.498
293.498
293.498
293.498
293.498
293.498
293.498
293.498
293.498
293.498
293.498
293.498
293.498
293.498
293.498
293.498
293.498
293.498
293.498
293.498
293.498
293.498
293.498
293.49801
293.49801
293.49803
293.49805
293.49809
293.49815
293.49824
293.49835
293.4985
293.49869
293.49892
293.49919
293.4995
293.49986
293.50025
293.50068
293.50116
293.50169
293.50225
293.50286
293.50349
293.50416
293.50484
293.50553
293.50623
293.50693
293.50762
293.50828
293.50892
293.50952
293.51008
293.51059
293.51107
293.5115
293.51188
293.51223
293.51254
293.51283
293.51309
293.51332
293.51354
293.51375
293.51395
293.51414
293.51433
293.51453
293.51472
293.51492
293.51513
293.51535
293.51559
293.51584
293.5161
293.51639
293.51669
293.51702
293.51737
293.51774
293.51814
293.51857
293.51902
293.5195
293.52
293.52054
293.52111
293.5217
293.52233
293.52298
293.52366
293.52438
293.52512
293.52589
293.52669
293.52752
293.52838
293.52926
293.53016
293.53109
293.53204
293.53302
293.53401
293.53501
293.53603
293.53706
293.5381
293.53914
293.54019
293.54123
293.54227
293.54325
293.54404
293.498
293.498
293.498
293.498
293.498
293.498
293.498
293.498
293.498
293.498
293.498
293.498
293.498
293.498
293.498
293.498
293.498
293.498
293.498
293.498
293.498
293.498
293.498
293.498
293.498
293.498
293.498
293.498
293.498
293.498
293.498
293.49801
293.49802
293.49803
293.49805
293.49808
293.49812
293.49817
293.49823
293.49832
293.49841
293.49853
293.49866
293.4988
293.49897
293.49915
293.49936
293.49958
293.49982
293.50008
293.50035
293.50063
293.50093
293.50123
293.50153
293.50183
293.50213
293.50243
293.50271
293.50299
293.50325
293.50349
293.50373
293.50394
293.50415
293.50434
293.50452
293.50469
293.50486
293.50502
293.50517
293.50532
293.50547
293.50561
293.50576
293.50591
293.50607
293.50623
293.50639
293.50656
293.50674
293.50693
293.50713
293.50734
293.50757
293.5078
293.50805
293.50832
293.5086
293.50889
293.5092
293.50953
293.50988
293.51024
293.51062
293.51102
293.51143
293.51187
293.51232
293.5128
293.51329
293.5138
293.51433
293.51488
293.51544
293.51602
293.51662
293.51723
293.51786
293.5185
293.51916
293.51982
293.5205
293.52118
293.52187
293.52256
293.52326
293.52395
293.5246
293.52513
293.498
293.498
293.498
293.498
293.498
293.498
293.498
293.498
293.498
293.498
293.498
293.498
293.498
293.498
293.498
293.498
293.498
293.498
293.498
293.498
293.498
293.498
293.498
293.498
293.498
293.498
293.498
293.498
293.498
293.498
293.498
293.498
293.49801
293.49801
293.49802
293.49802
293.49804
293.49805
293.49808
293.4981
293.49814
293.49818
293.49822
293.49828
293.49834
293.49841
293.49848
293.49857
293.49866
293.49876
293.49887
293.49899
293.4991
293.49923
293.49936
293.49949
293.49962
293.49975
293.49988
293.50001
293.50013
293.50026
293.50037
293.50049
293.5006
293.50071
293.50081
293.50091
293.50101
293.50111
293.5012
293.5013
293.5014
293.50149
293.50159
293.50169
293.50179
293.5019
293.50201
293.50212
293.50224
293.50236
293.50249
293.50263
293.50277
293.50292
293.50308
293.50324
293.50342
293.5036
293.5038
293.504
293.50422
293.50444
293.50468
293.50493
293.50519
293.50546
293.50574
293.50603
293.50634
293.50666
293.50699
293.50733
293.50769
293.50805
293.50843
293.50882
293.50922
293.50963
293.51004
293.51047
293.51091
293.51135
293.5118
293.51225
293.5127
293.51316
293.51359
293.51393
293.498
293.498
293.498
293.498
293.498
293.498
293.498
293.498
293.498
293.498
293.498
293.498
293.498
293.498
293.498
293.498
293.498
293.498
293.498
293.498
293.498
293.498
293.498
293.498
293.498
293.498
293.498
293.498
293.498
293.498
293.498
293.498
293.498
293.498
293.498
293.49801
293.49801
293.49802
293.49802
293.49803
293.49804
293.49806
293.49807
293.49809
293.49811
293.49814
293.49817
293.4982
293.49824
293.49827
293.49832
293.49836
293.49841
293.49846
293.49851
293.49857
293.49862
293.49868
293.49874
293.4988
293.49885
293.49891
293.49897
293.49903
293.49909
293.49914
293.4992
293.49925
293.49931
293.49936
293.49942
293.49948
293.49953
293.49959
293.49965
293.49971
293.49977
293.49984
293.4999
293.49997
293.50005
293.50012
293.5002
293.50029
293.50037
293.50047
293.50056
293.50066
293.50077
293.50088
293.501
293.50113
293.50126
293.5014
293.50154
293.50169
293.50185
293.50202
293.50219
293.50237
293.50256
293.50276
293.50296
293.50317
293.50339
293.50362
293.50386
293.5041
293.50435
293.50461
293.50487
293.50515
293.50542
293.50571
293.50599
293.50629
293.50658
293.50688
293.50716
293.50738
293.498
293.498
293.498
293.498
293.498
293.498
293.498
293.498
293.498
293.498
293.498
293.498
293.498
293.498
293.498
293.498
293.498
293.498
293.498
293.498
293.498
293.498
293.498
293.498
293.498
293.498
293.498
293.498
293.498
293.498
293.498
293.498
293.498
293.498
293.498
293.498
293.498
293.49801
293.49801
293.49801
293.49801
293.49802
293.49802
293.49803
293.49804
293.49805
293.49806
293.49807
293.49808
293.4981
293.49811
293.49813
293.49815
293.49817
293.49819
293.49821
293.49824
293.49826
293.49829
293.49831
293.49834
293.49837
293.4984
293.49842
293.49845
293.49848
293.49851
293.49854
293.49857
293.4986
293.49863
293.49866
293.49869
293.49873
293.49876
293.4988
293.49883
293.49887
293.49891
293.49895
293.499
293.49904
293.49909
293.49914
293.49919
293.49925
293.49931
293.49937
293.49943
293.4995
293.49957
293.49965
293.49973
293.49981
293.4999
293.49999
293.50009
293.50019
293.50029
293.5004
293.50052
293.50064
293.50077
293.5009
293.50103
293.50118
293.50132
293.50148
293.50163
293.5018
293.50196
293.50214
293.50231
293.5025
293.50268
293.50287
293.50306
293.50325
293.50344
293.50358
293.498
293.498
293.498
293.498
293.498
293.498
293.498
293.498
293.498
293.498
293.498
293.498
293.498
293.498
293.498
293.498
293.498
293.498
293.498
293.498
293.498
293.498
293.498
293.498
293.498
293.498
293.498
293.498
293.498
293.498
293.498
293.498
293.498
293.498
293.498
293.498
293.498
293.498
293.498
293.498
293.498
293.49801
293.49801
293.49801
293.49801
293.49802
293.49802
293.49802
293.49803
293.49803
293.49804
293.49805
293.49805
293.49806
293.49807
293.49808
293.49809
293.4981
293.49811
293.49812
293.49814
293.49815
293.49816