/*--------------------------------*- C++ -*----------------------------------*\
| =========                 |                                                 |
| \\      /  F ield         | OpenFOAM: The Open Source CFD Toolbox           |
|  \\    /   O peration     | Version:  2412                                  |
|   \\  /    A nd           | Website:  www.openfoam.com                      |
|    \\/     M anipulation  |                                                 |
\*---------------------------------------------------------------------------*/
FoamFile
{
    version     2.0;
    format      ascii;
    arch        "LSB;label=32;scalar=64";
    class       volScalarField;
    location    "100";
    object      epsilon;
}
// * * * * * * * * * * * * * * * * * * * * * * * * * * * * * * * * * * * * * //

dimensions      [0 2 -3 0 0 0 0];

internalField   nonuniform List<scalar> 
12225
(
168091
190222
140872
93610.1
70869.3
58540.5
50378.3
44572.9
40419.9
37404.7
35172.1
33509.2
32290.6
31440.1
30924.3
30724.1
30896.9
29625.3
26541.9
42157.9
36118.5
26271.9
20034.3
16339.4
13944.3
12267.8
11059.4
10172.2
9507.18
9001.69
8614.45
8324.18
8104.54
7961.59
7853.26
7873.77
2755.85
8150.83
8708.34
7907.16
6748.35
5894.33
5237.24
4724.74
4320.57
3999.92
3743.17
3536.85
3367.77
3231.52
3112.85
3025.17
2908.97
2919.95
121.215
1582.64
2156.08
2231.2
2161.67
2049.02
1942.01
1854
1779.87
1714.35
1655.37
1603.5
1554.76
1512.1
1466.98
1432.74
1376.55
1354.33
41.6922
286.802
566.022
683.75
719.636
714.866
705.271
690.659
680.279
673.304
667.472
663.739
658.927
655.31
648.216
643.195
626.646
624.296
5.81492
61.4388
135.027
215.127
264.304
286.765
295.058
294.027
291.932
288.121
284.654
282.338
280.007
278.748
276.682
275.53
269.96
271.118
3.69093
24.4268
39.1828
67.2965
93.8644
114.456
128.695
137.072
141.505
143.48
143.315
142.832
141.493
140.194
138.176
136.964
133.364
133.544
11.3364
17.1021
20.5536
28.5837
38.2522
47.8741
56.4996
63.5534
68.9501
72.92
75.5953
77.2844
78.2513
78.5717
78.388
78.1799
76.7696
76.9923
13.8166
15.3468
16.3334
18.6789
21.9429
25.6836
29.5113
33.1373
36.3613
39.1549
41.4406
43.3181
44.7155
45.8496
46.518
47.1159
47.1707
47.6543
14.5489
14.9282
15.2056
15.8971
16.9661
18.3554
19.9142
21.5415
23.1051
24.6008
25.9152
27.1405
28.1167
29.0569
29.6859
30.3854
30.6741
31.2144
14.7411
14.7831
14.8496
15.0541
15.358
15.8335
16.4166
17.0884
17.7717
18.4828
19.1339
19.7952
20.3409
20.9173
21.3202
21.8146
22.0431
22.5115
14.7819
14.702
14.7001
14.7579
14.8319
14.9871
15.1972
15.4692
15.76
16.0887
16.3993
16.7377
17.0238
17.3451
17.576
17.8734
18.0203
18.3195
14.783
14.6637
14.6024
14.5853
14.5869
14.6136
14.6577
14.7418
14.8374
14.959
15.0775
15.2196
15.3419
15.4897
15.5976
15.7438
15.8181
15.9754
14.7761
14.6376
14.5386
14.4727
14.4252
14.3942
14.3724
14.367
14.3695
14.3794
14.3935
14.4208
14.4431
14.4783
14.5019
14.5399
14.5574
14.6016
14.7709
14.6185
14.4958
14.4003
14.3214
14.2557
14.1986
14.1504
14.1069
14.0698
14.034
14.005
13.9748
13.9523
13.9245
13.9075
13.8777
13.868
14.7677
14.6061
14.4685
14.354
14.2551
14.1679
14.0888
14.017
13.9494
13.8866
13.8259
13.7696
13.7137
13.6627
13.61
13.5639
13.5125
13.4722
14.766
14.5991
14.4528
14.3267
14.2155
14.1151
14.0226
13.9365
13.8549
13.7774
13.7026
13.6313
13.5616
13.4956
13.4301
13.3691
13.3069
13.2514
14.7654
14.5965
14.4462
14.3144
14.1966
14.0891
13.9893
13.8955
13.8062
13.7208
13.6386
13.5594
13.4829
13.4092
13.3379
13.2694
13.203
13.1396
14.7661
14.5983
14.4488
14.3171
14.199
14.0907
13.9897
13.8944
13.8037
13.7166
13.6329
13.5521
13.4744
13.3992
13.3273
13.2576
13.1914
13.127
14.768
14.6062
14.4637
14.3402
14.2305
14.1299
14.037
13.9496
13.8674
13.7888
13.7145
13.643
13.5759
13.5111
13.4513
13.3925
13.3401
13.2864
14.7694
14.6235
14.4934
14.3885
14.2979
14.2185
14.1505
14.09
14.0404
13.9966
13.9629
13.9333
13.9131
13.895
13.8856
13.8762
13.8758
13.8693
14.7617
14.6673
14.5526
14.502
14.4732
14.4854
14.5138
14.5779
14.6813
14.7975
14.9438
15.088
15.2574
15.4096
15.5886
15.7336
15.9174
16.0423
14.7081
14.7666
14.7133
14.9513
15.1853
15.623
16.2142
16.8754
17.6214
18.355
19.1292
19.8329
20.5655
21.1845
21.8496
22.3608
22.9616
23.3549
14.3693
15.0921
15.5145
17.2393
19.2783
21.9682
24.922
27.8273
30.6712
33.2025
35.5805
37.5504
39.4155
40.8336
42.2679
43.2165
44.3437
44.9059
9.71787
18.5164
22.438
32.6176
44.7077
56.6096
67.2402
75.9711
82.9168
88.0279
91.8621
94.4544
96.3457
97.4451
98.3326
98.665
99.1337
98.9559
7.2561
41.6824
81.689
141.481
189.085
219.905
237.504
246.011
248.909
248.456
247.413
245.501
243.795
242.61
242.038
242.152
243.061
243.033
37.2995
270.906
587.333
753.124
815.579
822.701
813.215
798.531
783.936
772.594
766.147
761.704
760.856
761.403
762.999
765.6
770.264
771.736
80.4692
2603.53
3668.21
3834.5
3686.17
3451.36
3219.35
3040.8
2892.01
2765.01
2655.78
2558.15
2471.74
2393.17
2323.35
2258.19
2201.85
2145.04
6743.7
20877.4
21817.8
19357.1
15850.1
13421
11687.9
10368.5
9320.3
8475.09
7789.51
7227.51
6762.56
6372.89
6043.46
5760.98
5517.62
5301.98
65729.9
118694
105699
79356.2
61507
51053.4
44039.7
38783.4
34702.8
31492.7
28927.5
26841.6
25119.5
23676.9
22452.2
21401.4
20484.6
19694.1
5.4812
3.38917
4.57746
6.15101
8.03657
10.1249
12.3028
14.4717
16.5584
18.5186
20.3293
21.9852
23.5064
24.9412
26.3943
28.0893
30.4907
33.6926
37.4523
41.6522
46.2502
51.2352
56.6169
62.4092
68.6363
75.3203
82.492
90.1776
98.4123
107.225
116.654
126.729
137.49
148.967
161.199
174.213
188.047
202.723
218.279
234.732
252.114
270.438
289.732
310.001
331.267
353.527
376.798
401.069
426.353
452.636
479.931
508.222
537.507
567.745
598.918
630.993
663.957
697.78
732.446
767.927
804.212
841.28
879.124
917.732
957.104
997.245
1038.16
1079.87
1122.4
1165.77
1210.02
1255.24
1301.48
1348.83
1397.37
1447.21
1498.4
1551.09
1605.34
1661.33
1719.11
1778.88
1840.71
1904.77
1971.04
2039.59
2110.33
2183.2
2258.06
2334.85
2413.64
2493.94
2575.38
2657.4
2739.56
2821.13
2901.47
2979.68
3054.92
3126.28
3192.88
3253.93
3309.47
3359.25
3387.96
3410.11
3420.3
3422.28
3414.38
3395.28
3364.45
3322.14
3268.09
3202.93
3126.59
3039.89
2944.85
2839.54
2727.65
2608.7
2483.85
2354.33
2221.39
2086.31
1950.53
1815.28
1682
1551.72
1425.91
1305.52
1188.92
1079.8
999.32
1022.62
1070.8
1123.57
1177.86
1232.47
1286.92
1340.59
1392.59
1442.01
1488.51
1531.37
1570.47
1605.32
1635.53
1660.9
1681.51
1696.82
1707.44
1711.97
1713.45
1710.06
1701.99
1689.75
1674.11
1655.69
1634.98
1612.46
1588.55
1563.67
1538.15
1512.33
1486.48
1460.83
1435.56
1410.82
1386.67
1363.13
1340.14
1317.55
1295.12
1272.36
1248.88
1223
1195.64
1156.51
1123.59
1012.23
8.75902
5.88872
5.11907
5.24956
5.82338
6.64142
7.59381
8.61914
9.68144
10.7614
11.8458
12.9302
14.0228
15.1451
16.3377
17.6614
19.1904
20.9535
22.9336
25.108
27.4632
29.9918
32.6944
35.5731
38.6354
41.887
45.3382
48.9962
52.8727
56.9754
61.3166
65.9033
70.7473
75.8545
81.2357
86.8947
92.8413
99.077
105.61
112.44
119.574
127.007
134.745
142.783
151.122
159.754
168.68
177.891
187.386
197.157
207.204
217.515
228.085
238.892
249.928
261.18
272.64
284.297
296.142
308.166
320.363
332.724
345.245
357.921
370.75
383.733
396.87
410.17
423.641
437.31
451.216
465.326
479.654
494.228
509.054
524.165
539.561
555.28
571.323
587.73
604.495
621.672
639.265
657.302
675.743
694.605
713.819
733.368
753.187
773.284
793.549
813.838
834.014
853.952
873.515
892.535
910.833
928.188
944.361
959.016
971.631
979.569
991.708
1004.41
1007.8
1008.53
1011.26
1013.79
1018.17
1016.17
1012.65
1006.99
999.185
989.223
977.144
963.001
947.589
929.308
909.842
888.389
865.142
840.233
813.824
786.113
757.328
727.706
697.513
667.01
636.525
606.338
576.326
547.72
523.653
520.149
524.356
530.975
538.202
545.485
552.622
559.495
565.961
571.706
576.71
580.802
583.859
586.279
587.04
587.02
586.098
583.985
581.035
576.87
572.025
566.417
559.925
552.957
545.66
537.962
529.867
521.491
512.928
504.28
495.627
487.049
478.608
470.365
462.364
454.644
447.229
440.141
433.38
426.937
420.804
414.889
409.272
403.463
398.421
391.105
388.18
376.074
15.2312
9.30675
7.20834
6.59234
6.6525
7.06024
7.67256
8.41592
9.25067
10.1549
11.117
12.1323
13.2033
14.3384
15.5527
16.8658
18.2978
19.861
21.5588
23.389
25.3494
27.4376
29.6534
31.9974
34.4715
37.0776
39.8193
42.6994
45.7218
48.8899
52.2089
55.6818
59.3121
63.1017
67.0538
71.1696
75.4514
79.8993
84.5144
89.2958
94.2438
99.3564
104.633
110.071
115.669
121.424
127.333
133.393
139.602
145.956
152.453
159.085
165.851
172.743
179.758
186.891
194.137
201.492
208.953
216.514
224.174
231.928
239.774
247.71
255.733
263.843
272.04
280.325
288.701
297.17
305.737
314.398
323.156
332.016
340.981
350.056
359.244
368.551
377.981
387.54
397.23
407.059
417.023
427.123
437.349
447.7
458.167
468.761
479.494
490.272
501.05
511.763
522.355
532.784
542.99
552.919
562.495
571.648
580.293
588.346
595.728
602.297
609.353
615.624
620.109
624.284
628.801
632.993
637.011
639.619
640.997
641.83
641.789
640.771
638.857
636.039
632.399
627.515
621.743
614.886
606.913
597.82
587.626
576.368
564.107
550.922
536.912
522.202
506.957
491.286
475.324
459.709
445.827
437.538
432.352
428.385
424.77
421.186
417.539
413.786
409.901
405.801
401.503
396.794
391.689
386.301
380.464
374.329
367.961
361.34
354.571
347.615
340.593
333.538
326.444
319.391
312.451
305.663
299.064
292.648
286.438
280.458
274.728
269.263
264.073
259.166
254.546
250.216
246.175
242.423
238.958
235.776
232.887
230.256
227.991
225.857
224.464
223.03
223.74
225.454
23.3327
13.4752
9.92606
8.6514
8.35687
8.54346
9.0021
9.63574
10.3964
11.2579
12.2057
13.2329
14.3376
15.5224
16.793
18.157
19.6225
21.1959
22.8808
24.6785
26.5894
28.6133
30.7508
33.0026
35.3684
37.8482
40.4432
43.1543
45.9825
48.9271
51.9854
55.1596
58.455
61.8746
65.4207
69.0948
72.8986
76.8328
80.8979
85.0935
89.4199
93.8767
98.4639
103.181
108.027
113.003
118.106
123.336
128.693
134.175
139.781
145.509
151.357
157.324
163.407
169.605
175.916
182.337
188.867
195.504
202.245
209.088
216.032
223.073
230.211
237.442
244.765
252.179
259.682
267.271
274.946
282.703
290.54
298.456
306.447
314.513
322.65
330.855
339.127
347.461
355.853
364.298
372.787
381.313
389.864
398.43
406.999
415.559
424.092
432.599
441.034
449.362
457.553
465.582
473.422
481.043
488.418
495.514
502.303
508.762
514.895
520.735
526.466
531.781
536.52
541.03
545.419
549.537
553.303
556.446
559.003
561.19
562.777
563.528
563.687
563.273
562.183
560.271
557.573
554.007
549.519
544.074
537.657
530.264
521.915
512.645
502.507
491.572
479.914
467.619
454.919
442.239
430.286
420.177
411.306
403.049
395.016
387.032
379.103
371.199
363.322
355.459
347.637
339.801
331.858
323.789
315.565
307.25
298.902
290.554
282.263
274.049
265.965
258.043
250.302
242.775
235.498
228.5
221.808
215.44
209.405
203.708
198.357
193.353
188.697
184.382
180.403
176.753
173.422
170.4
167.681
165.254
163.125
161.271
159.781
158.436
158.111
157.612
158.936
161.514
31.3091
17.6143
12.7353
10.9079
10.3494
10.3917
10.7699
11.3624
12.1089
12.9774
13.9504
15.0184
16.1772
17.4258
18.7658
20.1999
21.7318
23.3643
25.0998
26.9394
28.8836
30.9321
33.0842
35.339
37.6972
40.1592
42.7256
45.3973
48.1753
51.0614
54.0585
57.1702
60.3965
63.7387
67.1989
70.7792
74.4826
78.3125
82.2681
86.3496
90.5581
94.8946
99.3601
103.955
108.682
113.539
118.529
123.652
128.908
134.297
139.82
145.477
151.267
157.189
163.244
169.43
175.747
182.192
188.766
195.466
202.291
209.238
216.304
223.488
230.786
238.194
245.709
253.327
261.042
268.852
276.749
284.728
292.784
300.909
309.097
317.34
325.631
333.96
342.32
350.7
359.09
367.478
375.852
384.197
392.5
400.746
408.917
416.997
424.964
432.817
440.536
448.097
455.482
462.674
469.66
476.425
482.958
489.246
495.282
501.056
506.588
511.907
517.015
521.829
526.319
530.566
534.586
538.336
541.753
544.76
547.358
549.579
551.34
552.446
552.988
552.995
552.422
551.151
549.138
546.319
542.639
538.054
532.533
526.062
518.642
510.287
501.032
490.934
480.102
468.603
456.628
444.445
432.428
420.962
410.101
399.559
389.163
378.811
368.479
358.252
348.156
338.191
328.422
318.828
309.377
300.026
290.627
281.229
271.884
262.644
253.555
244.648
235.957
227.509
219.323
211.421
203.824
196.552
189.624
183.053
176.851
171.022
165.568
160.49
155.785
151.448
147.47
143.843
140.554
137.592
134.946
132.605
130.566
128.813
127.398
126.193
125.722
125.374
126.272
128.06
38.018
21.2602
15.3745
13.1538
12.4194
12.3741
12.7115
13.2928
14.0484
14.9414
15.9514
17.0667
18.2812
19.5921
20.9987
22.5016
24.1021
25.8013
27.6007
29.5009
31.5023
33.6051
35.8091
38.1143
40.521
43.0296
45.6411
48.3565
51.1775
54.1059
57.1444
60.2955
63.5614
66.9444
70.4471
74.0718
77.8206
81.6948
85.6987
89.8353
94.1075
98.5177
103.069
107.762
112.601
117.587
122.722
128.009
133.448
139.041
144.789
150.693
156.754
162.972
169.347
175.879
182.568
189.411
196.408
203.557
210.856
218.301
225.89
233.617
241.479
249.469
257.582
265.81
274.147
282.584
291.111
299.72
308.4
317.14
325.928
334.752
343.6
352.457
361.309
370.142
378.941
387.69
396.372
404.972
413.473
421.858
430.113
438.221
446.173
453.958
461.557
468.955
476.135
483.089
489.807
496.284
502.511
508.487
514.206
519.661
524.853
529.794
534.485
538.9
543.03
546.887
550.471
553.759
556.721
559.323
561.551
563.397
564.798
565.573
565.864
565.658
564.854
563.381
561.179
558.187
554.35
549.619
543.957
537.342
529.763
521.23
511.776
501.464
490.381
478.631
466.359
453.755
441.054
428.48
416.11
403.899
391.8
379.734
367.891
356.237
344.785
333.51
322.475
311.715
301.223
290.979
280.904
270.844
260.876
251.068
241.465
232.1
222.998
214.181
205.664
197.464
189.596
182.074
174.911
168.118
161.704
155.673
150.026
144.765
139.887
135.388
131.259
127.492
124.074
120.994
118.24
115.799
113.663
111.822
110.294
109.033
108.186
107.814
108.063
109.114
42.9876
24.2786
17.7877
15.3345
14.4939
14.3979
14.7159
15.2997
16.0732
16.9958
18.0445
19.2061
20.473
21.8408
23.3077
24.8731
26.5371
28.3001
30.163
32.1262
34.1904
36.3559
38.6233
40.993
43.466
46.0433
48.7263
51.5168
54.4171
57.4297
60.5576
63.8038
67.1717
70.6646
74.286
78.0394
81.9284
85.9563
90.1273
94.4452
98.9139
103.537
108.318
113.261
118.368
123.642
129.088
134.706
140.501
146.472
152.624
158.957
165.472
172.17
179.052
186.118
193.366
200.796
208.406
216.194
224.157
232.29
240.589
249.049
257.663
266.424
275.322
284.349
293.494
302.745
312.091
321.517
331.009
340.553
350.132
359.73
369.329
378.911
388.458
397.951
407.371
416.699
425.916
435.003
443.942
452.715
461.305
469.696
477.875
485.829
493.547
501.015
508.22
515.156
521.816
528.196
534.291
540.101
545.621
550.848
555.78
560.418
564.761
568.796
572.519
575.924
579.008
581.753
584.141
586.155
587.77
588.966
589.627
589.772
589.428
588.529
587.014
584.816
581.878
578.139
573.547
568.052
561.618
554.222
545.858
536.546
526.334
515.286
503.483
491.029
478.047
464.693
451.141
437.556
424.035
410.618
397.324
384.168
371.223
358.521
346.084
333.862
322.018
310.512
299.34
288.488
277.919
267.441
257.055
246.863
236.911
227.229
217.838
208.752
199.985
191.548
183.454
175.713
168.335
161.331
154.706
148.466
142.613
137.147
132.069
127.373
123.054
119.102
115.507
112.258
109.342
106.745
104.458
102.47
100.784
99.383
98.3099
97.6086
97.4651
97.9473
47.16
27.2252
20.2599
17.5748
16.6092
16.4481
16.7362
17.3151
18.1011
19.0484
20.131
21.3334
22.6463
24.0643
25.5845
27.2054
28.9268
30.7487
32.6717
34.6964
36.8238
39.0547
41.3903
43.8319
46.3811
49.0396
51.8099
54.6945
57.6963
60.8187
64.0655
67.4406
70.9481
74.5924
78.3779
82.3091
86.3907
90.6271
95.0234
99.5839
104.314
109.217
114.298
119.562
125.012
130.652
136.486
142.517
148.749
155.183
161.824
168.671
175.728
182.996
190.474
198.164
206.063
214.172
222.488
231.009
239.729
248.646
257.751
267.04
276.503
286.13
295.912
305.835
315.887
326.053
336.317
346.662
357.07
367.522
377.997
388.476
398.936
409.356
419.713
429.984
440.148
450.182
460.063
469.772
479.287
488.588
497.657
506.477
515.031
523.311
531.302
538.991
546.369
553.427
560.161
566.566
572.639
578.375
583.773
588.826
593.531
597.883
601.877
605.506
608.761
611.636
614.122
616.207
617.868
619.118
619.863
620.124
619.847
619.044
617.68
615.708
613.077
609.731
605.615
600.678
594.871
588.151
580.492
571.886
562.341
551.893
540.6
528.532
515.765
502.4
488.555
474.366
459.98
445.538
431.142
416.862
402.747
388.837
375.182
361.82
348.775
336.05
323.689
311.698
300.075
288.809
277.884
267.139
256.521
246.114
235.965
226.101
216.538
207.286
198.355
189.753
181.491
173.576
166.019
158.828
152.01
145.573
139.521
133.855
128.575
123.679
119.161
115.015
111.232
107.799
104.705
101.936
99.4815
97.3291
95.4754
93.9113
92.646
91.7094
91.1591
91.2486
60.0189
33.0448
23.7955
20.2362
18.8903
18.5525
18.7536
19.296
20.0749
21.0338
22.1403
23.3751
24.7267
26.1881
27.7553
29.4264
31.2005
33.0775
35.0581
37.1433
39.3344
41.6328
44.0404
46.5593
49.1919
51.941
54.8096
57.8011
60.9195
64.1689
67.5539
71.0791
74.7496
78.5706
82.5473
86.6852
90.9898
95.4665
100.121
104.958
109.984
115.204
120.623
126.246
132.078
138.123
144.386
150.871
157.582
164.521
171.693
179.098
186.741
194.621
202.741
211.099
219.696
228.53
237.598
246.898
256.424
266.172
276.133
286.3
296.663
307.209
317.927
328.801
339.815
350.952
362.193
373.516
384.901
396.324
407.761
419.188
430.579
441.907
453.148
464.274
475.26
486.08
496.71
507.126
517.304
527.222
536.861
546.2
555.225
563.919
572.273
580.271
587.903
595.16
602.036
608.525
614.623
620.324
625.623
630.512
634.983
639.029
642.638
645.806
648.517
650.766
652.534
653.825
654.568
654.815
654.499
653.614
652.137
650.049
647.32
643.916
639.792
634.907
629.213
622.673
615.25
606.917
597.675
587.534
576.516
564.672
552.085
538.737
524.803
510.395
495.63
480.63
465.524
450.43
435.446
420.644
406.075
391.781
377.797
364.152
350.864
337.939
325.394
313.215
301.411
289.967
278.885
268.037
257.34
246.873
236.671
226.754
217.134
207.817
198.811
190.123
181.759
173.73
166.043
158.709
151.735
145.132
138.903
133.053
127.584
122.497
117.787
113.45
109.481
105.866
102.593
99.6496
97.0246
94.7056
92.6852
90.955
89.5115
88.3756
87.5291
87.2573
76.3667
40.1329
27.8706
23.1268
21.2482
20.6532
20.7177
21.1919
21.9425
22.8978
24.0169
25.2755
26.659
28.1584
29.7685
31.4864
33.3109
35.242
37.2803
39.4271
41.6842
44.0536
46.5379
49.1399
51.8629
54.7104
57.6863
60.795
64.041
67.4295
70.9656
74.6549
78.5032
82.5164
86.7006
91.062
95.6068
100.341
105.272
110.404
115.745
121.3
127.076
133.077
139.31
145.78
152.492
159.45
166.66
174.124
181.847
189.832
198.08
206.595
215.377
224.426
233.742
243.324
253.168
263.272
273.629
284.233
295.077
306.15
317.441
328.936
340.62
352.477
364.487
376.629
388.881
401.22
413.619
426.052
438.491
450.907
463.271
475.553
487.721
499.748
511.603
523.257
534.683
545.853
556.742
567.326
577.581
587.486
597.023
606.177
614.932
623.275
631.191
638.672
645.709
652.294
658.42
664.078
669.262
673.958
678.155
681.841
685.001
687.622
689.69
691.194
692.092
692.405
692.087
691.138
689.53
687.246
684.27
680.58
676.154
670.965
664.981
658.177
650.521
641.999
632.603
622.313
611.152
599.014
586.107
572.54
558.396
543.895
528.972
513.718
498.242
482.656
467.075
451.601
436.32
421.294
406.572
392.186
378.163
364.517
351.262
338.395
325.918
313.819
302.096
290.7
279.675
268.885
258.288
247.949
237.866
228.051
218.51
209.249
200.273
191.589
183.204
175.127
167.37
159.944
152.858
146.123
139.747
133.739
128.104
122.844
117.959
113.445
109.298
105.506
102.06
98.9471
96.156
93.674
91.4925
89.6004
87.9893
86.6711
85.6117
85.0115
94.6825
47.7702
32.1172
26.0436
23.5604
22.6634
22.5655
22.9485
23.6545
24.5941
25.7169
26.9929
28.4037
29.9382
31.5896
33.3542
35.2303
37.2176
39.3167
41.5293
43.8575
46.3038
48.8715
51.5641
54.3855
57.34
60.4324
63.6677
67.0513
70.589
74.2868
78.1509
82.188
86.4045
90.8075
95.4036
100.2
105.204
110.422
115.861
121.528
127.43
133.574
139.966
146.612
153.519
160.691
168.136
175.857
183.859
192.147
200.723
209.592
218.756
228.215
237.97
248.022
258.368
269.006
279.931
291.138
302.619
314.364
326.364
338.604
351.07
363.743
376.604
389.632
402.803
416.09
429.466
442.903
456.368
469.831
483.258
496.615
509.869
522.985
535.929
548.668
561.17
573.404
585.339
596.947
608.201
619.076
629.547
639.595
649.201
658.349
667.022
675.205
682.885
690.051
696.694
702.803
708.366
713.373
717.805
721.648
724.882
727.489
729.448
730.738
731.342
731.23
730.39
728.798
726.437
723.289
719.333
714.559
708.945
702.481
695.15
686.938
677.846
667.858
656.974
645.021
632.234
618.677
604.701
590.146
575.105
559.78
543.97
527.913
511.733
495.536
479.429
463.503
447.842
432.509
417.548
402.99
388.851
375.136
361.844
348.97
336.499
324.416
312.702
301.334
290.257
279.47
268.947
258.634
248.613
238.823
229.276
219.963
210.887
202.056
193.476
185.158
177.113
169.353
161.893
154.746
147.926
141.445
135.314
129.541
124.131
119.088
114.411
110.099
106.144
102.537
99.2667
96.3199
93.6847
91.3491
89.3014
87.532
86.0445
84.8081
83.9333
114.277
55.6043
36.3219
28.8439
25.7248
24.503
24.2322
24.5154
25.1688
26.0866
27.2088
28.4996
29.9369
31.5073
33.2024
35.0174
36.9501
38.9997
41.1671
43.4536
45.8619
48.395
51.0564
53.8503
56.7814
59.8545
63.0752
66.4492
69.9827
73.682
77.5541
81.6059
85.8446
90.2775
94.9124
99.7569
104.819
110.105
115.625
121.385
127.394
133.658
140.186
146.984
154.06
161.421
169.072
177.021
185.273
193.833
202.706
211.896
221.407
231.241
241.401
251.887
262.698
273.833
285.289
297.061
309.142
321.525
334.198
347.149
360.363
373.822
387.507
401.394
415.46
429.676
444.014
458.442
472.926
487.432
501.923
516.361
530.71
544.929
558.982
572.829
586.434
599.761
612.775
625.443
637.733
649.616
661.065
672.052
682.555
692.554
702.03
710.964
719.338
727.137
734.348
740.957
746.951
752.316
757.033
761.082
764.441
767.087
768.993
770.135
770.471
770.001
768.666
766.461
763.356
759.329
754.361
748.433
741.536
733.66
724.804
714.98
704.174
692.237
679.297
665.441
651.127
636.165
620.732
604.563
587.938
571.01
553.92
536.742
519.602
502.61
485.865
469.456
453.454
437.912
422.863
408.326
394.306
380.793
367.765
355.201
343.079
331.356
320.003
308.999
298.272
287.825
277.642
267.701
257.958
248.429
239.076
229.956
221.017
212.264
203.699
195.331
187.175
179.245
171.558
164.13
156.981
150.127
143.586
137.372
131.498
125.973
120.803
115.991
111.536
107.435
103.678
100.257
97.1595
94.3741
91.8916
89.6989
87.7832
86.1416
84.7486
83.6447
134.449
63.3403
40.3224
31.4204
27.6631
26.1167
25.673
25.8563
26.4572
27.3536
28.4767
29.7851
31.2534
32.8657
34.6121
36.4867
38.4866
40.6105
42.859
45.2337
47.7372
50.3729
53.1447
56.0574
59.1161
62.3264
65.6944
69.2267
72.9302
76.8119
80.8795
85.1407
89.6036
94.2762
99.1672
104.285
109.638
115.235
121.084
127.194
133.574
140.232
147.177
154.416
161.957
169.808
177.976
186.468
195.291
204.45
213.95
223.797
233.995
244.545
255.451
266.712
278.329
290.299
302.618
315.281
328.281
341.607
355.247
369.187
383.41
397.895
412.619
427.557
442.679
457.956
473.353
488.834
504.362
519.897
535.399
550.825
566.133
581.279
596.221
610.917
625.325
639.407
653.123
666.439
679.32
691.734
703.651
715.043
725.885
736.153
745.829
754.89
763.317
771.092
778.197
784.618
790.336
795.334
799.587
803.072
805.756
807.616
808.614
808.709
807.887
806.08
803.27
799.431
794.524
788.528
781.419
773.184
763.825
753.335
741.658
728.671
714.578
699.725
684.177
667.989
650.851
633.075
614.829
596.213
577.395
558.542
539.819
521.356
503.273
485.665
468.615
452.189
436.432
421.358
406.962
393.23
380.134
367.636
355.674
344.21
333.199
322.567
312.266
302.277
292.558
283.082
273.82
264.743
255.817
247.028
238.352
229.799
221.355
213.056
204.877
196.832
188.937
181.211
173.675
166.351
159.262
152.431
145.879
139.627
133.692
128.086
122.821
117.901
113.329
109.104
105.219
101.667
98.4378
95.5193
92.9007
90.5692
88.5106
86.7181
85.1745
83.8792
154.448
70.6964
43.9783
33.6875
29.3173
27.4637
26.8587
26.9519
27.5087
28.3922
29.5253
30.8619
32.3732
34.0411
35.8543
37.8058
39.8918
42.1107
44.4627
46.9494
49.5734
52.3384
55.2487
58.3095
61.5265
64.9061
68.455
72.1805
76.0903
80.1923
84.4951
89.0072
93.7375
98.6952
103.89
109.33
115.026
120.987
127.222
133.741
140.554
147.67
155.097
162.845
170.922
179.336
188.096
197.208
206.681
216.519
226.728
237.314
248.281
259.63
271.364
283.483
295.986
308.869
322.127
335.755
349.741
364.076
378.744
393.727
409.007
424.558
440.354
456.366
472.561
488.902
505.352
521.871
538.415
554.94
571.402
587.752
603.943
619.929
635.662
651.097
666.187
680.892
695.169
708.98
722.29
735.064
747.271
758.882
769.868
780.207
789.876
798.853
807.115
814.642
821.414
827.411
832.614
836.997
840.536
843.197
844.933
845.734
845.545
844.327
842.009
838.565
833.961
828.155
821.104
812.779
803.177
792.259
779.828
766.046
751.026
735.126
718.201
700.457
681.615
661.969
641.636
620.825
599.751
578.608
557.59
536.887
516.686
497.145
478.379
460.456
443.434
427.359
412.236
398.031
384.689
372.164
360.393
349.299
338.772
328.763
319.211
310.04
301.181
292.579
284.193
275.98
267.906
259.936
252.035
244.182
236.359
228.563
220.791
213.055
205.366
197.751
190.214
182.781
175.477
168.329
161.366
154.618
148.11
141.869
135.915
130.269
124.943
119.947
115.286
110.962
106.971
103.307
99.9621
96.9248
94.1839
91.7268
89.5395
87.6119
85.9299
84.4627
173.567
77.4228
47.1714
35.5789
30.6474
28.5211
27.7793
27.8037
28.3359
29.2259
30.3893
31.7756
33.3536
35.103
37.0112
39.0701
41.2753
43.6247
46.1182
48.7574
51.5451
54.4851
57.5823
60.8424
64.2719
67.8777
71.6675
75.6493
79.832
84.2243
88.8359
93.6762
98.7552
104.083
109.67
115.527
121.663
128.09
134.817
141.856
149.216
156.907
164.939
173.321
182.063
191.173
200.658
210.527
220.786
231.442
242.5
253.964
265.838
278.123
290.819
303.926
317.441
331.359
345.672
360.371
375.444
390.877
406.652
422.748
439.14
455.8
472.697
489.796
507.059
524.445
541.911
559.412
576.899
594.324
611.637
628.785
645.719
662.385
678.733
694.714
710.281
725.389
739.994
754.057
767.54
780.408
792.631
804.175
815.016
825.126
834.485
843.067
850.849
857.809
863.924
869.171
873.525
876.957
879.436
880.931
881.335
880.767
879.016
876.069
871.886
866.413
859.615
851.448
841.845
830.611
817.784
803.43
787.918
771.156
753.233
733.842
713.255
691.641
669.119
645.895
622.182
598.236
574.339
550.751
527.691
505.371
484.003
463.756
444.722
426.918
410.374
395.115
381.089
368.209
356.35
345.447
335.398
326.092
317.439
309.298
301.589
294.218
287.099
280.153
273.347
266.624
259.952
253.282
246.581
239.827
233.004
226.107
219.138
212.107
205.029
197.932
190.843
183.788
176.794
169.894
163.124
156.518
150.11
143.93
138.006
132.36
127.012
121.974
117.255
112.859
108.787
105.034
101.592
98.4525
95.604
93.0345
90.73
88.6787
86.8682
85.2537
191.923
83.5567
49.9151
37.1069
31.6718
29.3173
28.4749
28.4665
29.01
29.9439
31.1776
32.657
34.3482
36.2297
38.2874
40.5125
42.9002
45.4479
48.1557
51.0252
54.0594
57.2628
60.6409
64.2001
67.948
71.8922
76.0416
80.4052
84.9931
89.8153
94.8826
100.206
105.796
111.664
117.822
124.28
131.05
138.144
145.572
153.345
161.473
169.967
178.837
188.092
197.74
207.79
218.248
229.123
240.42
252.143
264.297
276.884
289.905
303.36
317.247
331.562
346.297
361.446
376.996
392.935
409.246
425.909
442.903
460.201
477.774
495.588
513.605
531.784
550.081
568.45
586.842
605.206
623.491
641.642
659.606
677.328
694.752
711.824
728.492
744.703
760.411
775.568
790.131
804.061
817.32
829.875
841.693
852.744
863.001
872.44
881.037
888.768
895.609
901.538
906.528
910.552
913.579
915.571
916.496
916.312
915.018
912.464
908.616
903.421
896.845
888.795
879.107
867.714
854.661
840.183
824.201
806.658
787.705
767.072
744.969
721.478
696.769
671.056
644.581
617.621
590.45
563.405
536.85
511.105
486.39
462.915
440.919
420.567
401.906
384.834
369.372
355.535
343.186
332.209
322.458
313.739
305.898
298.801
292.383
286.408
280.82
275.498
270.336
265.237
260.197
255.134
250.03
244.814
239.457
233.937
228.242
222.367
216.316
210.1
203.742
197.27
190.716
184.114
177.507
170.926
164.413
158.011
151.758
145.691
139.843
134.242
128.911
123.867
119.123
114.686
110.558
106.738
103.22
99.9956
97.0552
94.3868
91.977
89.8134
87.884
86.1397
208.543
88.7522
52.0445
38.1886
32.3573
29.8575
28.984
29.0108
29.634
30.6827
32.0612
33.7126
35.6015
37.7054
40.0095
42.5049
45.1866
48.0525
51.1028
54.3398
57.7675
61.391
65.217
69.2531
73.5078
77.9901
82.7098
87.6774
92.9046
98.4029
104.184
110.26
116.643
123.344
130.376
137.75
145.478
153.57
162.039
170.893
180.143
189.797
199.864
210.353
221.268
232.617
244.405
256.635
269.311
282.434
296.006
310.024
324.485
339.386
354.717
370.47
386.634
403.193
420.131
437.428
455.062
473.006
491.235
509.714
528.407
547.275
566.272
585.354
604.467
623.562
642.585
661.481
680.196
698.675
716.862
734.699
752.132
769.106
785.567
801.467
816.758
831.397
845.341
858.554
871.001
882.649
893.469
903.431
912.511
920.683
927.926
934.22
939.534
943.853
947.144
949.369
950.497
950.456
949.361
946.952
943.234
938.145
931.625
923.565
913.774
902.289
889.207
874.536
858.153
840.13
820.207
798.507
775.104
750.031
723.43
695.48
666.388
636.443
606.009
575.466
545.11
515.381
486.745
459.568
433.995
410.189
388.45
368.905
351.514
336.212
322.825
311.292
301.329
292.83
285.616
279.395
273.985
269.277
265.281
261.55
258.193
254.999
251.853
248.626
245.42
242.051
238.588
234.88
230.927
226.705
222.203
217.42
212.356
207.027
201.459
195.684
189.738
183.663
177.502
171.3
165.104
158.962
152.918
147.017
141.294
135.784
130.513
125.503
120.77
116.325
112.172
108.312
104.741
101.454
98.4398
95.689
93.1883
90.9257
88.8886
87.0308
223.021
92.9007
53.5062
38.82
32.7413
30.2129
29.4063
29.5624
30.3586
31.6174
33.2402
35.1689
37.3677
39.8137
42.493
45.397
48.5214
51.8653
55.4301
59.2193
63.2382
67.4934
71.9928
76.7455
81.7613
87.0506
92.6244
98.4945
104.674
111.175
118.009
125.19
132.729
140.637
148.926
157.606
166.687
176.179
186.089
196.426
207.196
218.406
230.059
242.16
254.71
267.712
281.164
295.067
309.419
324.216
339.452
355.121
371.214
387.717
404.617
421.897
439.538
457.519
475.813
494.395
513.235
532.301
551.56
570.973
590.499
610.091
629.701
649.276
668.762
688.104
707.248
726.139
744.723
762.946
780.754
798.092
814.908
831.149
846.766
861.713
875.95
889.437
902.137
914.015
925.043
935.191