/*--------------------------------*- C++ -*----------------------------------*\
| =========                 |                                                 |
| \\      /  F ield         | OpenFOAM: The Open Source CFD Toolbox           |
|  \\    /   O peration     | Version:  2412                                  |
|   \\  /    A nd           | Website:  www.openfoam.com                      |
|    \\/     M anipulation  |                                                 |
\*---------------------------------------------------------------------------*/
FoamFile
{
    version     2.0;
    format      ascii;
    arch        "LSB;label=32;scalar=64";
    class       volScalarField;
    location    "100";
    object      k;
}
// * * * * * * * * * * * * * * * * * * * * * * * * * * * * * * * * * * * * * //

dimensions      [0 2 -2 0 0 0 0];

internalField   nonuniform List<scalar> 
12225
(
16.474
17.8838
14.6444
11.1514
9.26319
8.15488
7.37796
6.79959
6.37028
6.04933
5.80607
5.62152
5.4843
5.38748
5.32836
5.30509
5.32596
5.17324
3.58959
6.1026
5.80168
5.01009
4.24099
3.7143
3.34029
3.06267
2.85255
2.69154
2.56633
2.46797
2.39022
2.32943
2.28146
2.24747
2.23098
2.15216
0.644352
1.62825
2.03644
2.05447
2.01974
1.93984
1.84384
1.75304
1.6717
1.60047
1.53891
1.48635
1.44104
1.40216
1.36792
1.33659
1.31065
1.27667
0.411838
0.509726
0.694106
0.786492
0.842983
0.87979
0.903227
0.917149
0.925432
0.927627
0.926637
0.923736
0.918181
0.911437
0.902215
0.892863
0.878305
0.867091
0.384263
0.38352
0.392557
0.403125
0.413992
0.426642
0.439544
0.452862
0.466498
0.479822
0.491811
0.503618
0.512933
0.522086
0.527628
0.533017
0.533958
0.535262
0.383343
0.384869
0.378934
0.36727
0.351943
0.337999
0.327029
0.318664
0.313772
0.310547
0.310631
0.311413
0.313155
0.316317
0.318638
0.322068
0.32339
0.32657
0.380904
0.387141
0.38727
0.381606
0.372024
0.358253
0.344375
0.330592
0.319208
0.308938
0.300649
0.29294
0.287105
0.281597
0.27795
0.274002
0.271853
0.268904
0.377674
0.385256
0.388879
0.388311
0.385831
0.380141
0.373239
0.364477
0.355649
0.345744
0.337321
0.328516
0.321636
0.314103
0.308942
0.302651
0.299144
0.293935
0.375711
0.380913
0.385826
0.387757
0.387587
0.386328
0.384041
0.380241
0.376265
0.371131
0.36649
0.360938
0.356468
0.351014
0.347163
0.342033
0.339054
0.334218
0.374782
0.3776
0.380803
0.383812
0.38537
0.385502
0.385155
0.384116
0.382568
0.380266
0.378077
0.37523
0.372831
0.369783
0.367483
0.364408
0.362395
0.359297
0.37455
0.375326
0.376728
0.379066
0.380905
0.382006
0.38269
0.382641
0.382325
0.381567
0.380638
0.379329
0.378124
0.376572
0.375258
0.373591
0.372269
0.370513
0.37419
0.373947
0.374349
0.375454
0.376784
0.377879
0.378774
0.379278
0.379467
0.379376
0.379092
0.378555
0.377929
0.377112
0.376327
0.375384
0.374474
0.373446
0.37409
0.372871
0.372703
0.372899
0.373399
0.374066
0.374734
0.375269
0.375626
0.375792
0.375763
0.37566
0.375425
0.375051
0.374601
0.37407
0.373447
0.372819
0.374001
0.372317
0.371361
0.370904
0.370742
0.370769
0.370874
0.371055
0.371202
0.371296
0.371281
0.371233
0.371102
0.370906
0.370614
0.370304
0.36985
0.369473
0.373918
0.371985
0.37055
0.369553
0.368823
0.368282
0.367869
0.36755
0.367272
0.367017
0.366753
0.366486
0.36619
0.365892
0.36553
0.365196
0.364735
0.364394
0.373862
0.371771
0.370058
0.368708
0.367601
0.366661
0.36584
0.36511
0.364434
0.363801
0.363189
0.362604
0.362018
0.36146
0.360875
0.36034
0.359727
0.359234
0.373832
0.371648
0.369777
0.368216
0.366878
0.365693
0.364615
0.363618
0.362673
0.36177
0.360893
0.360047
0.359213
0.358412
0.35761
0.356856
0.356072
0.355378
0.373821
0.371601
0.369659
0.367993
0.366535
0.365219
0.364003
0.36286
0.361768
0.360715
0.359692
0.358697
0.357725
0.356781
0.355858
0.354966
0.354091
0.353254
0.373833
0.371633
0.369704
0.368042
0.366577
0.365246
0.364009
0.36284
0.361719
0.360634
0.359579
0.35855
0.357548
0.356571
0.355624
0.354701
0.353811
0.352943
0.373873
0.371769
0.369969
0.368458
0.367143
0.365957
0.36486
0.363828
0.362838
0.361878
0.360939
0.360018
0.359119
0.358235
0.357376
0.356528
0.355715
0.354901
0.373946
0.372029
0.370496
0.369301
0.368308
0.367428
0.366624
0.365869
0.365125
0.364375
0.36361
0.362844
0.362064
0.361267
0.360459
0.35964
0.358827
0.357995
0.374077
0.372533
0.37155
0.370973
0.370544
0.370104
0.369693
0.369237
0.368644
0.36795
0.367119
0.366199
0.365175
0.364126
0.363006
0.361889
0.360713
0.359569
0.374277
0.373624
0.373715
0.373967
0.373978
0.373694
0.37325
0.372394
0.371209
0.369842
0.368204
0.366494
0.364538
0.362578
0.360403
0.358327
0.356044
0.353956
0.374741
0.375836
0.37702
0.377238
0.37684
0.375677
0.373583
0.370908
0.367536
0.363879
0.359755
0.355447
0.350566
0.345876
0.340903
0.336447
0.331626
0.327532
0.376344
0.378347
0.378617
0.377464
0.374523
0.36882
0.361434
0.353282
0.344408
0.335671
0.326921
0.318952
0.311676
0.305136
0.299124
0.293565
0.288656
0.284123
0.378472
0.378564
0.377757
0.372275
0.364057
0.353618
0.343107
0.333626
0.325493
0.319264
0.314395
0.311471
0.309462
0.309555
0.310231
0.311963
0.315002
0.317788
0.384847
0.395992
0.423709
0.452577
0.474576
0.493833
0.510256
0.525697
0.541753
0.557009
0.573857
0.589378
0.606629
0.621796
0.638852
0.653395
0.669944
0.683143
0.508375
0.759092
1.11874
1.30374
1.3865
1.42318
1.44088
1.45158
1.45261
1.45096
1.44673
1.43885
1.43003
1.41941
1.40909
1.39741
1.38719
1.37485
1.57456
4.09712
4.77681
4.60867
4.25712
3.91147
3.61788
3.36748
3.15199
2.96773
2.81146
2.67847
2.56522
2.46781
2.38388
2.31045
2.2464
2.18881
10.5957
15.693
14.5394
12.0029
10.1314
8.94853
8.10897
7.45017
6.91795
6.48444
6.12735
5.82912
5.57705
5.36143
5.17493
5.01219
4.86802
4.74199
0.0234207
0.0281508
0.0343476
0.0417704
0.0498584
0.0580884
0.0660663
0.0735336
0.0803531
0.0864881
0.0919485
0.096794
0.101146
0.105204
0.109342
0.114305
0.121326
0.129926
0.139482
0.149701
0.16046
0.171706
0.183429
0.195629
0.208321
0.221517
0.23524
0.249507
0.264343
0.279764
0.295794
0.312446
0.329744
0.347695
0.366318
0.385615
0.405599
0.426267
0.447626
0.469666
0.492389
0.51578
0.539835
0.56453
0.589858
0.615788
0.642309
0.669389
0.697011
0.725146
0.75378
0.782876
0.812392
0.84228
0.87251
0.903041
0.933846
0.964885
0.996134
1.02756
1.05914
1.09084
1.12266
1.15457
1.18656
1.21863
1.25077
1.28298
1.31527
1.34766
1.38014
1.41277
1.44557
1.47859
1.51188
1.54549
1.57946
1.61384
1.64869
1.68408
1.72004
1.75666
1.79395
1.83204
1.8709
1.91058
1.95102
1.9922
2.03404
2.07653
2.11973
2.16338
2.2073
2.25123
2.29495
2.33813
2.38047
2.42159
2.46112
2.4986
2.53363
2.56581
2.59476
2.61999
2.64116
2.6551
2.66099
2.66518
2.66353
2.65668
2.64387
2.62523
2.60048
2.5698
2.53301
2.49038
2.44201
2.38866
2.32929
2.26567
2.19735
2.12482
2.0485
1.96891
1.88665
1.80233
1.71665
1.63022
1.54382
1.4582
1.37396
1.29025
1.20783
1.16749
1.19334
1.23044
1.26949
1.30862
1.34729
1.38505
1.42163
1.45635
1.48888
1.51893
1.54613
1.57052
1.59181
1.60986
1.62462
1.63617
1.64428
1.64938
1.65056
1.64974
1.64578
1.63882
1.6292
1.61739
1.60376
1.58861
1.57221
1.55485
1.53676
1.51818
1.49929
1.48029
1.4613
1.44246
1.42382
1.40544
1.38728
1.36927
1.35125
1.33291
1.31396
1.29325
1.27139
1.241
1.21491
1.13115
0.0319844
0.0374748
0.0479631
0.0607745
0.0744496
0.0882392
0.101786
0.114933
0.127634
0.139896
0.15179
0.163403
0.174842
0.186223
0.197697
0.209439
0.221628
0.234281
0.247361
0.260823
0.274651
0.288835
0.303384
0.3183
0.333604
0.349302
0.365415
0.381953
0.398938
0.416376
0.43429
0.452681
0.471571
0.490956
0.510854
0.531257
0.552182
0.573618
0.595576
0.618043
0.641026
0.664505
0.688485
0.71294
0.737869
0.763243
0.789058
0.815285
0.841924
0.868956
0.896402
0.924274
0.952465
0.980921
1.00962
1.03852
1.06761
1.09683
1.12617
1.15558
1.18504
1.2145
1.24395
1.27335
1.30266
1.33187
1.36095
1.38989
1.41867
1.44729
1.47567
1.50383
1.53177
1.55952
1.58707
1.61446
1.64169
1.66882
1.69585
1.72285
1.74981
1.77681
1.80381
1.83103
1.8585
1.88633
1.91453
1.94322
1.97242
2.00228
2.03278
2.06387
2.09552
2.12772
2.16045
2.19366
2.22727
2.26118
2.29527
2.32938
2.36326
2.39619
2.42893
2.46079
2.49257
2.52252
2.55097
2.57792
2.60398
2.6296
2.6536
2.67597
2.69645
2.71479
2.73079
2.74423
2.75355
2.76406
2.76724
2.76913
2.76728
2.76123
2.75075
2.73576
2.7162
2.69213
2.66365
2.63099
2.59444
2.55446
2.51159
2.46628
2.41943
2.37288
2.33429
2.29677
2.25812
2.21801
2.17658
2.13406
2.0907
2.04608
1.99992
1.95265
1.90422
1.85533
1.80632
1.75725
1.70844
1.66027
1.61308
1.56689
1.52158
1.47754
1.43473
1.39318
1.35302
1.31456
1.27796
1.24324
1.21042
1.17953
1.15056
1.1235
1.09831
1.07494
1.05332
1.0334
1.01508
0.998296
0.982933
0.968897
0.956075
0.94431
0.933535
0.923382
0.914169
0.904102
0.895309
0.87471
0.0461339
0.0543214
0.0712839
0.0912594
0.111525
0.131203
0.150143
0.168403
0.186094
0.203328
0.22022
0.236879
0.253412
0.269923
0.28652
0.303307
0.320382
0.337807
0.355621
0.373839
0.392476
0.411536
0.431033
0.450974
0.471373
0.492242
0.513598
0.535451
0.55782
0.580714
0.604152
0.628141
0.652692
0.677809
0.7035
0.729767
0.756615
0.784044
0.812057
0.84065
0.869824
0.899567
0.929877
0.960738
0.992141
1.02407
1.0565
1.08943
1.12282
1.15664
1.19086
1.22543
1.26036
1.29563
1.33123
1.36713
1.4033
1.4397
1.4763
1.51307
1.54996
1.58695
1.62399
1.66106
1.69811
1.7351
1.77202
1.80882
1.84548
1.88197
1.91826
1.95434
1.99021
2.02585
2.06127
2.09647
2.13147
2.16629
2.20095
2.2355
2.26999
2.30448
2.33907
2.37376
2.40853
2.44347
2.47862
2.51404
2.54981
2.58605
2.62278
2.65998
2.69764
2.73577
2.77434
2.81332
2.85266
2.89227
2.93204
2.97182
3.01144
3.05094
3.08969
3.1277
3.16503
3.20126
3.23642
3.27074
3.30409
3.33656
3.36767
3.39708
3.42463
3.44993
3.47263
3.49243
3.50889
3.52255
3.53065
3.5349
3.53515
3.53045
3.52048
3.50506
3.48408
3.45754
3.42553
3.38827
3.34602
3.29916
3.24824
3.19427
3.13942
3.08285
3.02599
2.96766
2.90741
2.8454
2.78195
2.71742
2.65217
2.58637
2.52013
2.45323
2.38486
2.31625
2.24756
2.17901
2.11099
2.04379
1.97771
1.91297
1.84968
1.78804
1.72818
1.67021
1.61426
1.56045
1.50897
1.46007
1.4139
1.37053
1.33001
1.29234
1.25751
1.22546
1.19613
1.16941
1.1452
1.12339
1.10383
1.0864
1.07095
1.05734
1.04545
1.03517
1.02632
1.01872
1.0106
0.99602
0.0611232
0.0736301
0.0980936
0.125145
0.151229
0.175759
0.198967
0.221171
0.242641
0.263586
0.284179
0.304559
0.324852
0.345169
0.365613
0.386277
0.407243
0.428578
0.450333
0.472541
0.49523
0.518416
0.542116
0.56634
0.591105
0.61642
0.6423
0.668759
0.695811
0.72347
0.751752
0.780665
0.810222
0.840431
0.871304
0.902847
0.935069
0.967974
1.00157
1.03585
1.07082
1.10648
1.14281
1.17982
1.2175
1.25582
1.29478
1.33436
1.37453
1.41528
1.45657
1.4984
1.54073
1.58355
1.62683
1.67054
1.71465
1.75914
1.80395
1.84905
1.89442
1.94
1.98576
2.03166
2.07766
2.12371
2.16978
2.21583
2.26183
2.30773
2.35351
2.39914
2.44458
2.48983
2.53487
2.57967
2.62422
2.66854
2.71261
2.75644
2.80005
2.84344
2.88664
2.92965
2.97247
3.01511
3.0576
3.09995
3.14219
3.18438
3.22652
3.26859
3.31055
3.35238
3.39406
3.43556
3.47682
3.51777
3.55836
3.59849
3.63808
3.67712
3.71523
3.75253
3.78906
3.8246
3.85906
3.89248
3.92467
3.95552
3.98479
4.0122
4.03755
4.06051
4.08069
4.09776
4.11133
4.12062
4.12514
4.12552
4.12113
4.11138
4.09597
4.07468
4.04737
4.01403
3.97471
3.92957
3.87884
3.82294
3.76255
3.6987
3.63278
3.56462
3.4945
3.42231
3.34818
3.27247
3.1956
3.11799
3.04001
2.962
2.88414
2.80652
2.72905
2.65207
2.57498
2.49796
2.4216
2.34594
2.27136
2.19804
2.12614
2.05584
1.98732
1.9207
1.85615
1.79382
1.73391
1.67662
1.62214
1.57061
1.52213
1.47677
1.43458
1.39555
1.35967
1.32688
1.2971
1.27024
1.24616
1.22475
1.20587
1.18937
1.17514
1.16321
1.15305
1.14541
1.13759
1.12552
0.074142
0.0931239
0.125828
0.159681
0.191018
0.219822
0.246733
0.272311
0.296969
0.321003
0.34464
0.368058
0.391403
0.414801
0.438361
0.462176
0.48633
0.510889
0.53591
0.561437
0.587502
0.614133
0.64135
0.66917
0.697611
0.726684
0.756407
0.786793
0.817858
0.849617
0.882087
0.915281
0.949217
0.98391
1.01938
1.05563
1.09268
1.13053
1.1692
1.20869
1.249
1.29014
1.33209
1.37486
1.41843
1.4628
1.50795
1.55387
1.60055
1.64795
1.69606
1.74487
1.79433
1.84444
1.89515
1.94645
1.99829
2.05065
2.10348
2.15674
2.21039
2.26439
2.31869
2.37324
2.42799
2.4829
2.53791
2.59297
2.64804
2.70305
2.75796
2.81273
2.86729
2.92162
2.97566
3.02937
3.08271
3.13566
3.18817
3.24021
3.29177
3.34281
3.39331
3.44325
3.4926
3.54135
3.58948
3.63698
3.68386
3.73012
3.77577
3.82076
3.86507
3.90867
3.95154
3.99364
4.03496
4.07545
4.11508
4.1538
4.19157
4.22836
4.26401
4.29857
4.33201
4.36424
4.39517
4.42477
4.45286
4.47935
4.50404
4.52671
4.5471
4.565
4.57998
4.59184
4.5995
4.60306
4.60227
4.59688
4.58639
4.57036
4.54847
4.52048
4.48624
4.44567
4.39879
4.34574
4.28684
4.22258
4.15364
4.08084
4.00515
3.92686
3.84623
3.76348
3.67894
3.59309
3.50639
3.41929
3.3322
3.24549
3.1594
3.07408
2.9896
2.90613
2.82365
2.74224
2.66176
2.58165
2.50256
2.42453
2.34779
2.27249
2.19882
2.12693
2.05698
1.98916
1.92365
1.86065
1.80036
1.74296
1.6886
1.6374
1.58946
1.54483
1.50355
1.4656
1.43095
1.39953
1.37125
1.346
1.32366
1.30411
1.28722
1.273
1.26114
1.25199
1.24403
1.2325
0.0841688
0.111954
0.153372
0.193691
0.229878
0.262623
0.292943
0.321601
0.349128
0.375898
0.402189
0.428217
0.454154
0.480145
0.506312
0.532757
0.55957
0.586823
0.61458
0.64289
0.671797
0.701331
0.731523
0.762394
0.793967
0.826259
0.859292
0.893084
0.927655
0.963024
0.999213
1.03624
1.07413
1.1129
1.15256
1.19315
1.23466
1.27712
1.32054
1.36491
1.41026
1.45657
1.50386
1.55211
1.60132
1.65148
1.70259
1.75462
1.80756
1.8614
1.91611
1.97167
2.02806
2.08524
2.1432
2.20188
2.26127
2.32131
2.38197
2.4432
2.50495
2.56717
2.62981
2.6928
2.7561
2.81962
2.88332
2.94711
3.01093
3.07471
3.13837
3.20185
3.26506
3.32794
3.39041
3.45241
3.51385
3.57467
3.63481
3.6942
3.75279
3.8105
3.86729
3.92311
3.9779
4.03162
4.08423
4.1357
4.186
4.23513
4.28308
4.3298
4.37527
4.41946
4.46235
4.50394
4.54419
4.5831
4.62064
4.6568
4.69156
4.72487
4.75669
4.78701
4.81581
4.84305
4.86868
4.89261
4.91476
4.93501
4.95325
4.96928
4.98282
4.99376
5.00163
5.00587
5.0065
5.00304
4.99518
4.98255
4.96473
4.94132
4.912
4.87653
4.83471
4.78647
4.73183
4.67102
4.60441
4.53247
4.45582
4.37517
4.29131
4.20478
4.11598
4.02528
3.93309
3.8399
3.74619
3.65241
3.55898
3.46628
3.37457
3.28401
3.19471
3.10678
3.02028
2.93535
2.85196
2.7699
2.68898
2.60874
2.52957
2.45161
2.37503
2.30002
2.22674
2.15538
2.08614
2.01923
1.95484
1.8932
1.83447
1.77882
1.7264
1.67731
1.63163
1.5894
1.55062
1.51526
1.48326
1.45455
1.42901
1.40654
1.38702
1.37041
1.3566
1.34547
1.33722
1.32462
0.0912355
0.129802
0.179981
0.226348
0.267045
0.303478
0.336989
0.368508
0.398669
0.427915
0.456572
0.484893
0.51308
0.541298
0.569686
0.59836
0.627421
0.656953
0.687027
0.717702
0.749029
0.781049
0.813799
0.847309
0.881609
0.916723
0.952677
0.989495
1.0272
1.06583
1.10539
1.14591
1.18742
1.22995
1.27351
1.31812
1.3638
1.41057
1.45844
1.50742
1.55752
1.60874
1.66108
1.71455
1.76913
1.82483
1.88164
1.93953
1.9985
2.05852
2.11958
2.18166
2.24472
2.30874
2.37369
2.43953
2.50621
2.5737
2.64195
2.71091
2.78052
2.85072
2.92144
2.99262
3.06418
3.13604
3.20811
3.28032
3.35257
3.42476
3.4968
3.56859
3.64003
3.71101
3.78143
3.85118
3.92018
3.9883
4.05547
4.12157
4.18652
4.25024
4.31262
4.37361
4.43312
4.49108
4.54744
4.60214
4.65515
4.70643
4.75596
4.8037
4.84962
4.8937
4.93592
4.97626
5.01473
5.0513
5.08597
5.11873
5.14957
5.17845
5.20537
5.23031
5.25327
5.27422
5.29315
5.31
5.32469
5.33711
5.3473
5.35509
5.36002
5.36209
5.36108
5.3566
5.34844
5.33622
5.31962
5.29826
5.27176
5.23974
5.20189
5.15799
5.1079
5.05157
4.98906
4.92065
4.8467
4.76769
4.68419
4.59685
4.5064
4.41347
4.31857
4.22216
4.12468
4.02661
3.92841
3.83049
3.73323
3.63703
3.5421
3.44861
3.35666
3.26633
3.17767
3.09078
3.00571
2.92232
2.84049
2.75996
2.68033
2.60157
2.52386
2.44741
2.3724
2.29903
2.22752
2.15808
2.09093
2.02629
1.96438
1.9054
1.84952
1.79691
1.74768
1.70192
1.65967
1.62095
1.58573
1.55394
1.52552
1.50036
1.47837
1.45947
1.44362
1.4305
1.4216
1.40726
0.0977241
0.147009
0.205179
0.257043
0.301906
0.341765
0.378233
0.412387
0.444952
0.476435
0.507208
0.537559
0.567717
0.597869
0.628175
0.658767
0.689757
0.721243
0.753306
0.786017
0.819436
0.853613
0.888595
0.92442
0.961125
0.998743
1.0373
1.07684
1.11738
1.15896
1.20159
1.24532
1.29017
1.33616
1.38332
1.43167
1.48123
1.53202
1.58406
1.63735
1.69191
1.74774
1.80485
1.86324
1.9229
1.98383
2.04602
2.10946
2.17413
2.24002
2.30711
2.37538
2.44479
2.51532
2.58693
2.65958
2.73323
2.80783
2.88334
2.95968
3.03681
3.11464
3.1931
3.27211
3.35159
3.43143
3.51153
3.59179
3.67209
3.75232
3.83235
3.91206
3.99131
4.06998
4.14793
4.22503
4.30114
4.37613
4.44987
4.52223
4.59309
4.66234
4.72987
4.79556
4.85932
4.92107
4.98072
5.03819
5.09344
5.14642
5.19709
5.2454
5.29133
5.33483
5.3759
5.41453
5.45069
5.4844
5.51563
5.54437
5.57061
5.59434
5.61554
5.63422
5.65038
5.66398
5.67508
5.68368
5.68966
5.69283
5.6935
5.69135
5.68623
5.67802
5.66656
5.65161
5.63293
5.61023
5.5832
5.55154
5.51491
5.47293
5.42534
5.37203
5.31303
5.24825
5.17774
5.10182
5.02088
4.9354
4.8459
4.75304
4.65749
4.55991
4.46087
4.36084
4.26028
4.15962
4.05927
3.95958
3.86083
3.76349
3.6677
3.57356
3.48113
3.39047
3.30161
3.2146
3.12944
3.04606
2.96434
2.88412
2.80515
2.7272
2.64989
2.57344
2.49807
2.424
2.35145
2.28066
2.21186
2.14529
2.08119
2.0198
1.96135
1.90601
1.85397
1.80534
1.76022
1.71865
1.68065
1.64618
1.61519
1.5876
1.56333
1.54229
1.52445
1.50942
1.49904
1.48347
0.11548
0.165947
0.229167
0.285555
0.334067
0.376971
0.416077
0.452581
0.487289
0.52076
0.553407
0.585547
0.617437
0.649283
0.681263
0.713523
0.746192
0.779378
0.813176
0.847664
0.882915
0.918988
0.955938
0.993812
1.03266
1.07251
1.1134
1.15538
1.19847
1.24272
1.28814
1.33478
1.38267
1.43182
1.48228
1.53405
1.58717
1.64166
1.69753
1.75479
1.81346
1.87354
1.93505
1.99797
2.06232
2.12809
2.19527
2.26385
2.33381
2.40515
2.47785
2.55187
2.6272
2.7038
2.78163
2.86066
2.94084
3.02212
3.10444
3.18774
3.27194
3.35697
3.44274
3.52916
3.61613
3.70353
3.79124
3.87914
3.9671
4.05496
4.14259
4.22983
4.31652
4.4025
4.48761
4.57168
4.65455
4.73604
4.81601
4.89429
4.97073
5.04519
5.11753
5.18761
5.25532
5.32055
5.38318
5.44314
5.50035
5.55473
5.60626
5.65486
5.7005
5.74313
5.78275
5.81933
5.85285
5.88331
5.91068
5.93496
5.95611
5.97414
5.98899
6.00073
6.00936
6.01473
6.01704
6.01634
6.01245
6.00537
5.99517
5.98178
5.9651
5.94507
5.92157
5.89446
5.86358
5.82869
5.78955
5.74597
5.69774
5.64444
5.58596
5.52223
5.45319
5.37899
5.29976
5.21598
5.12808
5.03651
4.94182
4.8446
4.7455
4.64512
4.54402
4.44266
4.34144
4.24071
4.14082
4.04203
3.94438
3.84828
3.75392
3.66139
3.57067
3.48177
3.39473
3.30949
3.22603
3.14426
3.06407
2.98533
2.90784
2.83143
2.75586
2.6807
2.60618
2.53255
2.46007
2.38897
2.31951
2.25195
2.18655
2.12359
2.06332
2.00598
1.95177
1.90088
1.85342
1.80949
1.76912
1.73233
1.69909
1.66933
1.64298
1.61996
1.60022
1.58341
1.57114
1.55457
0.135556
0.183751
0.250724
0.31109
0.362854
0.408442
0.449856
0.488409
0.524982
0.560185
0.594467
0.628172
0.661578
0.69491
0.728359
0.762087
0.796234
0.830918
0.866244
0.902303
0.939174
0.976925
1.01562
1.05531
1.09605
1.13789
1.18087
1.22502
1.27039
1.31702
1.36493
1.41418
1.46477
1.51676
1.57016
1.625
1.68131
1.7391
1.7984
1.85923
1.92159
1.98549
2.05094
2.11796
2.18653
2.25666
2.32834
2.40157
2.47634
2.55262
2.63041
2.70968
2.79041
2.87256
2.9561
3.04098
3.12717
3.21461
3.30323
3.39297
3.48375
3.57548
3.66808
3.76142
3.85541
3.94991
4.04479
4.1399
4.23508
4.33017
4.425
4.51939
4.61315
4.70609
4.79801
4.88873
4.97804
5.06574
5.15164
5.23556
5.31731
5.39672
5.47363
5.54786
5.61929
5.68777
5.75318
5.81541
5.87435
5.92995
5.98213
6.03081
6.07595
6.1175
6.15543
6.18972
6.22034
6.24726
6.27047
6.28994
6.30562
6.31752
6.32553
6.32969
6.33014
6.32671
6.3195
6.30855
6.29383
6.27536
6.25319
6.22731
6.19773
6.16443
6.12738
6.08651
6.04181
5.99307
5.94014
5.88283
5.8206
5.75358
5.68207
5.60619
5.52623
5.4426
5.35572
5.2653
5.17171
5.07541
4.97691
4.87678
4.77561
4.67398
4.57239
4.47128
4.37098
4.2718
4.17401
4.07779
3.98331
3.89106
3.80084
3.71256
3.62612
3.54126
3.4581
3.37661
3.2967
3.21829
3.14122
3.06537
2.99057
2.91667
2.84351
2.77078
2.6982
2.62607
2.55464
2.48419
2.41498
2.34728
2.28139
2.21762
2.15625
2.09756
2.0418
1.98919
1.9399
1.89405
1.85173
1.81297
1.77776
1.74608
1.71786
1.69303
1.67152
1.65304
1.6388
1.62189
0.156317
0.199607
0.26916
0.332953
0.387579
0.435504
0.478902
0.519204
0.557364
0.594044
0.629727
0.664783
0.699505
0.734134
0.768875
0.803898
0.839352
0.875365
0.912049
0.949502
0.987809
1.02705
1.06728
1.10858
1.151
1.19458
1.23938
1.28544
1.3328
1.38151
1.43159
1.4831
1.53606
1.59051
1.64647
1.70398
1.76306
1.82373
1.88602
1.94994
2.01552
2.08275
2.15167
2.22226
2.29453
2.3685
2.44415
2.52149
2.6005
2.68117
2.76349
2.84744
2.933
3.02013
3.10881
3.19898
3.29062
3.38365
3.47802
3.57366
3.67047
3.76838
3.86728
3.96705
4.06757
4.16869
4.27027
4.37213
4.47411
4.57602
4.67765
4.77881
4.87927
4.97882
5.07723
5.17428
5.26973
5.36335
5.45492
5.54422
5.63104
5.71516
5.7964
5.87457
5.9495
6.02102
6.089
6.15329
6.21379
6.27039
6.32302
6.37159
6.41603
6.45628
6.4923
6.52407
6.55154
6.57467
6.59343
6.60777
6.61763
6.62298
6.62379
6.61999
6.61165
6.59874
6.58131
6.55938
6.53299
6.50216
6.46698
6.42749
6.38374
6.33584
6.28381
6.22759
6.16713
6.10168
6.03208
5.95861
5.88192
5.80236
5.71923
5.63268
5.54313
5.45132
5.35603
5.2583
5.15868
5.05764
4.95571
4.8534
4.75125
4.64973
4.54929
4.45026
4.35292
4.25745
4.16401
4.07263
3.98314
3.89604
3.81117
3.7284
3.64758
3.56862
3.49164
3.41619
3.34187
3.26863
3.19634
3.12493
3.05419
2.98401
2.91425
2.84473
2.77504
2.70535
2.63591
2.56699
2.49886
2.43183
2.3662
2.30232
2.24051
2.18109
2.12435
2.07055
2.0199
1.97257
1.92867
1.88828
1.85142
1.81807
1.78819
1.76171
1.73857
1.71851
1.70241
1.68483
0.177061
0.213158
0.284057
0.350636
0.407683
0.457576
0.502625
0.544372
0.583843
0.621747
0.658601
0.694797
0.730643
0.766394
0.802261
0.838422
0.875031
0.91222
0.950107
0.988793
1.02837
1.06891
1.1105
1.1532
1.19706
1.24215
1.28851
1.3362
1.38525
1.43573
1.48765
1.54107
1.59603
1.65255
1.71067
1.77042
1.83183
1.89493
1.95974
2.02629
2.09459
2.16465
2.2365
2.31014
2.38559
2.46285
2.54192
2.6228
2.70549
2.78998
2.87626
2.96432
3.05413
3.14567
3.2389
3.3338
3.4303
3.52837
3.62792
3.7289
3.83121
3.93476
4.03944
4.14512
4.25166
4.35892
4.46672
4.57489
4.68322
4.79151
4.89954
5.00707
5.11386
5.21966
5.32422
5.42726
5.52854
5.62778
5.72473
5.81912
5.91073
5.9993
6.08462
6.16647
6.24465
6.31897
6.38927
6.45538
6.51718
6.57454
6.62737
6.67557
6.71905
6.75774
6.79159
6.82056
6.84459
6.86363
6.87762
6.88651
6.89017
6.88867
6.8818
6.86954
6.85191
6.82892
6.8006
6.76698
6.7281
6.68401
6.63482
6.58064
6.5215
6.45739
6.38782
6.31362
6.235
6.15392
6.06937
5.9816
5.89136
5.7972
5.70018
5.60079
5.49949
5.39671
5.29259
5.18763
5.08237
4.97728
4.87287
4.76959
4.66788
4.56813
4.47066
4.37569
4.28338
4.1938
4.10695
4.02276
3.94108
3.8619
3.78507
3.7104
3.63766
3.56653
3.49695
3.42867
3.36143
3.29527
3.22964
3.16426
3.09904
3.03387
2.96864
2.90321
2.83727
2.77089
2.7043
2.63773
2.57148
2.50585
2.44119
2.37787
2.31624
2.25667
2.19949
2.145
2.09346
2.04507
1.99998
1.95829
1.92006
1.8853
1.85397
1.82602
1.80138
1.77985
1.76202
1.74354
0.197193
0.224162
0.295128
0.363768
0.42274
0.474198
0.520549
0.56343
0.603929
0.642804
0.680599
0.717726
0.754509
0.791209
0.828042
0.865189
0.902807
0.941028
0.979969
1.01973
1.06041
1.10209
1.14484
1.18873
1.23382
1.28017
1.32785
1.37689
1.42735
1.47927
1.53271
1.58769
1.64428
1.70249
1.76238
1.82396
1.88729
1.95238
2.01926
2.08796
2.15851
2.23093
2.30522
2.38142
2.45953
2.53956
2.62153
2.70543
2.79126
2.87903
2.96873
3.06035
3.15387
3.24927
3.34651
3.44557
3.5464
3.64895
3.75315
3.85893
3.96619
4.07485
4.18478
4.29585
4.40792
4.52081
4.63435
4.74834
4.86256
4.97678
5.09076
5.20423
5.31693
5.42857
5.53887
5.64753
5.75425
5.85874
5.96071
6.05985
6.1559
6.24858
6.33763
6.42282
6.50391
6.58069
6.65297
6.72056
6.78332
6.84109
6.89378
6.94125
6.98341
7.02017
7.05148
7.07726
7.09746
7.11201
7.12083
7.12379
7.12105
7.11215
7.09705
7.07575
7.04824
7.01452
6.97457
6.92852
6.87631
6.81802
6.75347
6.68251
6.60574
6.52359
6.43767
6.34749
6.25379
6.15521
6.05294
5.94765
5.83987
5.72979
5.61799
5.50508
5.39165
5.27824
5.16535
5.05349
4.94318
4.8349
4.72913
4.62622
4.5265
4.43023
4.3376
4.24869
4.1635
4.08196
4.00391
3.92912
3.85733
3.7883
3.72176
3.65739
3.59488
3.53389
3.47414
3.41532
3.3571
3.29915
3.24121
3.18343
3.12524
3.06641
3.00686
2.94651
2.8852
2.82299
2.76005
2.69661
2.63296
2.56943
2.5064
2.44426
2.38341
2.32425
2.26715
2.21246
2.16046
2.11142
2.0655
2.02285
1.98354
1.94761
1.91505
1.88581
1.85982
1.83692
1.8175
1.79804
0.21617
0.23245
0.302183
0.372089
0.432443
0.485036
0.532322
0.576013
0.617254
0.656841
0.695345
0.733195
0.770724
0.808201
0.845843
0.883831
0.922316
0.961429
1.00128
1.04198
1.08361
1.12625
1.16998
1.21487
1.26099
1.30839
1.35713
1.40727
1.45887
1.51197
1.56661
1.62286
1.68075
1.74033
1.80163
1.8647
1.92956
1.99627
2.06484
2.13531
2.20771
2.28207
2.3584
2.43672
2.51706
2.59944
2.68385
2.77032
2.85885
2.94944
3.04209
3.13679
3.23353
3.33229
3.43305
3.53578
3.64042
3.74694
3.85526
3.96532
4.07701
4.19025
4.3049
4.42083
4.53788
4.65587
4.77462
4.89389
5.01347
5.1331
5.2525
5.37139
5.48948
5.60646
5.72199
5.83577
5.94745
6.0567
6.1632
6.26661
6.36662
6.46293
6.55524
6.64329
6.72681
6.80557
6.87934
6.94793
7.01114
7.06883
7.12086
7.16709
7.20741
7.24172
7.26994
7.29199
7.3078
7.31729
7.32031
7.3172
7.30722
7.29025
7.26625
7.23524
7.19713
7.15191
7.09951
7.0395
6.97221
6.89786
6.81694
6.73027
6.63768
6.53995
6.43595
6.32685
6.2133
6.09558
5.97445
5.85071
5.72513
5.59839
5.47127
5.34454
5.21896
5.09527
4.9741
4.85606
4.74167
4.63141
4.52568
4.42475
4.32877
4.23787
4.15207
4.07128
3.99536
3.92403
3.85696
3.79374
3.73395
3.67719
3.62301
3.57098
3.52068
3.47169
3.42361
3.37603
3.32852
3.28076
3.23253
3.18337
3.13308
3.08177
3.02907
2.97486
2.9191
2.86188
2.80335
2.74375
2.68337
2.62259
2.56179
2.50141
2.44189
2.38367
2.32714
2.27271
2.2207
2.17139
2.12501
2.08172
2.04162
2.00478
1.9712
1.94085
1.91366
1.88951
1.86863
1.84816
0.233559
0.237932
0.305102
0.375417
0.436579
0.489861
0.537704
0.581878
0.623573
0.663619
0.702606
0.740972
0.779049
0.817133
0.855436
0.894128
0.933352
0.973232
1.01388
1.05538
1.09783
1.1413
1.18586
1.23159
1.27856
1.32682
1.37645
1.4275
1.48003
1.53409
1.58973
1.64701
1.70598
1.76668
1.82916
1.89346
1.95962
2.02769
2.09769
2.16966
2.24364
2.31966
2.39773
2.4779
2.56017
2.64457
2.73112
2.81983
2.9107
3.00376
3.09899
3.19639
3.29596
3.39768
3.50153
3.60747
3.71547
3.82547
3.93742
4.05123
4.16682
4.28408
4.40287
4.52307
4.6445
4.76698
4.8903
5.01423
5.13851
5.26287
5.38703
5.51067
5.63348
5.7551
5.8752
5.99341
6.10937
6.2227
6.33305
6.44004
6.54334
6.6426
6.73749
6.82772
6.913
6.99304
7.06762
7.13649
7.19946
7.25635
7.307
7.35126
7.389
7.42011
7.44448
7.46204
7.47269
7.47625
7.47339
7.46303
7.44497
7.4191
7.38516
7.34308
7.29287
7.23451
7.16818
7.09442
7.0129
6.92381
6.82776
6.72383
6.61286
6.4954
6.37175
6.24263
6.10882
5.97107
5.8303
5.68752
5.54382
5.40025
5.25783
5.11757
4.98043
4.84734
4.71903
4.59614
4.47921
4.3687
4.26493
4.16797
4.0778
3.9944
3.9176
3.84712
3.78267
3.72371
3.66974
3.62015
3.57436
3.53179
3.49186
3.45398
3.41763
3.3823
3.34747
3.31264
3.27726
3.24101
3.2036
3.16459
3.12378
3.08086
3.0358
2.98868
2.93933
2.88784
2.83439
2.77925
2.72276
2.66529
2.60729
2.5492
2.49153
2.43472
2.37925
2.32551
2.2739
2.22472
2.17822
2.13461
2.09401
2.0565
2.02212
1.99084
1.96262
1.93733
1.91513
1.89367
0.249667
0.240861
0.304052
0.373852
0.435146
0.488587
0.536556
0.580853
0.622698
0.662944
0.702197
0.740903
0.779406
0.818006
0.856886
0.896206
0.936103
0.976691
1.01807
1.06033
1.10355
1.1478
1.19315
1.23964
1.28739
1.33647
1.38694
1.43883
1.49223
1.54719
1.60378
1.66205
1.72206
1.78385
1.84747
1.91298
1.98041
2.0498
2.12121
2.19466
2.27018
2.34782
2.4276
2.50955
2.59369
2.68005
2.76864
2.85947
2.95256
3.04793
3.14556
3.24547
3.34763
3.45205
3.55869
3.66752
3.77852
3.89161
4.00674
4.12384
4.2428
4.36353
4.48588
4.60972
4.73488
4.86114
4.9883
5.11611
5.24431
5.3726
5.50067
5.6282
5.75484
5.88023
6.00399
6.12573
6.24504
6.36153
6.47479
6.58443
6.69006
6.79131
6.88783
6.97927
7.06531
7.14566
7.22003
7.28818
7.34986
7.40488
7.45307
7.49425
7.5283
7.55508
7.57444
7.5863
7.59029
7.58755
7.57668
7.55731
7.5294
7.4929
7.44798
7.39432
7.33181
7.26051
7.18082
7.09188
6.99405
6.88757
6.77272
6.6496
6.51869
6.38059
6.23596
6.08563
5.9306
5.77197
5.61093
5.4488
5.28701
5.12699
4.96998
4.81724
4.67
4.52932
4.39594
4.27046
4.15345
4.04532
3.94622
3.85597
3.77427
3.70104
3.63585
3.57825
3.52783
3.48362
3.44505
3.41129
3.38156
3.35515
3.33129
3.30928
3.28848
3.26832
3.24814
3.22738
3.20528
3.18167
3.15623
3.12835
3.0978
3.06442
3.02812
2.98876
2.94644
2.90132
2.85356
2.80346
2.75138
2.69775
2.64304
2.58774
2.53237
2.47744
2.42343
2.37081
2.31997
2.27127
2.22499
2.18135
2.14052
2.10258
2.0676
2.03556
2.00643
1.98013
1.95671
1.93429
0.263858
0.241347
0.299509
0.367817
0.428565
0.481649
0.529337
0.573434
0.615183
0.655448
0.694835
0.733783
0.772611
0.811584
0.850902
0.890723
0.931177
0.972373
1.01441
1.05737
1.10132
1.14635
1.19252
1.23986
1.28856
1.33861
1.39005
1.44289
1.49729
1.55332
1.61103
1.67049
1.73175
1.79485
1.85986
1.92681
1.99575
2.06672
2.13977
2.21492
2.29221
2.37167
2.45333
2.53721
2.62333
2.71172
2.80239
2.89535
2.99062
3.08819
3.18808
3.29027
3.39476
3.50153
3.61055
3.72179
3.83522
3.95076
4.06836
4.18794
4.3094
4.43264
4.55752
4.68389
4.81158
4.94038
5.07007
5.2004
5.33108
5.46182
5.59229
5.72217
5.85108
5.97865
6.10448
6.22815
6.34923
6.46728
6.58187
6.69259
6.79901
6.90073
6.99736
7.08852
7.17387
7.25308
7.32583
7.39182
7.45079
7.50251
7.54678
7.58342
7.61228
7.63322
7.646
7.65039
7.64799
7.63715
7.61726
7.58829
7.55011
7.5028
7.44579
7.37913
7.30272
7.21657
7.12069
7.01495
6.89941
6.7743
6.63991
6.49657
6.34483
6.18545
6.01928
5.84742
5.67116
5.49198
5.31132
5.13091
4.95263
4.77823
4.60903
4.44661
4.29247
4.14771
4.01282
3.88829
3.77472
3.67248
3.5815
3.50118
3.43095
3.37083
3.31999
3.27791
3.24408
3.21667
3.19559
3.17944
3.16721
3.1581
3.15126
3.14588
3.14128