/*--------------------------------*- C++ -*----------------------------------*\
| =========                 |                                                 |
| \\      /  F ield         | OpenFOAM: The Open Source CFD Toolbox           |
|  \\    /   O peration     | Version:  2412                                  |
|   \\  /    A nd           | Website:  www.openfoam.com                      |
|    \\/     M anipulation  |                                                 |
\*---------------------------------------------------------------------------*/
FoamFile
{
    version     2.0;
    format      ascii;
    arch        "LSB;label=32;scalar=64";
    class       volScalarField;
    location    "100";
    object      nut;
}
// * * * * * * * * * * * * * * * * * * * * * * * * * * * * * * * * * * * * * //

dimensions      [0 2 -1 0 0 0 0];

internalField   nonuniform List<scalar> 
12225
(
0.000145309
0.000151322
0.000137013
0.000119558
0.00010897
0.00010224
9.72461e-05
9.33548e-05
9.03577e-05
8.80502e-05
8.62598e-05
8.48762e-05
8.38318e-05
8.30864e-05
8.26286e-05
8.24423e-05
8.26272e-05
8.13026e-05
4.36918e-05
7.95049e-05
8.38727e-05
8.59889e-05
8.07986e-05
7.59905e-05
7.20136e-05
6.88135e-05
6.62185e-05
6.40957e-05
6.23471e-05
6.08972e-05
5.96887e-05
5.86679e-05
5.78015e-05
5.70991e-05
5.70406e-05
5.29428e-05
1.35592e-05
2.92741e-05
4.28599e-05
4.8042e-05
5.44049e-05
5.74567e-05
5.84235e-05
5.85391e-05
5.82128e-05
5.7635e-05
5.69415e-05
5.62168e-05
5.54948e-05
5.47563e-05
5.41013e-05
5.31483e-05
5.31469e-05
5.02368e-05
0.000125934
1.47752e-05
2.01108e-05
2.49513e-05
2.95864e-05
3.3998e-05
3.78081e-05
4.0833e-05
4.33055e-05
4.51742e-05
4.66838e-05
4.78926e-05
4.88019e-05
4.94443e-05
4.99388e-05
5.00776e-05
5.04362e-05
4.99628e-05
0.000318746
4.6157e-05
2.45027e-05
2.13907e-05
2.14345e-05
2.29163e-05
2.46542e-05
2.67245e-05
2.87909e-05
3.07745e-05
3.26142e-05
3.43912e-05
3.59357e-05
3.74352e-05
3.86526e-05
3.97541e-05
4.09482e-05
4.13032e-05
0.00227443
0.000216983
9.57081e-05
5.64311e-05
4.21777e-05
3.58547e-05
3.26217e-05
3.10828e-05
3.03522e-05
3.01247e-05
3.0508e-05
3.09134e-05
3.15204e-05
3.23054e-05
3.30259e-05
3.38819e-05
3.48655e-05
3.54026e-05
0.00353784
0.000552223
0.000344489
0.000194752
0.000132704
0.000100921
8.29363e-05
7.17594e-05
6.48063e-05
5.98679e-05
5.67637e-05
5.40722e-05
5.2431e-05
5.0906e-05
5.03202e-05
4.9334e-05
4.98738e-05
4.87317e-05
0.0011324
0.000781072
0.000662189
0.000474771
0.000350251
0.000271663
0.000221907
0.000188124
0.000165102
0.000147538
0.000135467
0.000125679
0.000118982
0.000113011
0.000109584
0.000105446
0.000104909
0.000100995
0.000919496
0.000850897
0.000820253
0.000724452
0.00061615
0.000522995
0.000449789
0.000392684
0.000350421
0.000316601
0.000291704
0.000270669
0.000255755
0.000241855
0.000233179
0.000223465
0.000219335
0.000210961
0.000868904
0.000859607
0.000858304
0.000833992
0.000787799
0.00072867
0.000670426
0.000616442
0.0005701
0.000529016
0.000496419
0.000466895
0.00044494
0.000423532
0.000409418
0.000393327
0.000385333
0.000372216
0.00085651
0.000857617
0.00086017
0.000859045
0.000850242
0.000829477
0.000802881
0.000771125
0.000740249
0.00070895
0.000681498
0.000654207
0.000632618
0.000610145
0.000594446
0.000575822
0.000565826
0.000548838
0.000852504
0.00085602
0.000857975
0.000859667
0.000861452
0.000857493
0.000849646
0.000836932
0.00082231
0.000805121
0.00078869
0.000770558
0.000755103
0.000737915
0.000725194
0.000709555
0.000700366
0.00068515
0.000851987
0.00085333
0.000856138
0.000858043
0.000860252
0.000861751
0.00086223
0.000859764
0.000855842
0.000849639
0.000842835
0.000834508
0.000826818
0.000817295
0.000809694
0.000799909
0.000793497
0.000783046
0.000851977
0.00085231
0.000853714
0.000855489
0.000857559
0.000859535
0.000861326
0.000862485
0.000863021
0.000862864
0.000861947
0.000860094
0.00085816
0.000855168
0.000852436
0.000848785
0.000845686
0.000841408
0.000851901
0.000851906
0.0008525
0.000853539
0.000854853
0.000856279
0.000857793
0.000859224
0.000860569
0.000861643
0.000862599
0.000863129
0.000863593
0.000863583
0.000863591
0.000863065
0.000862738
0.000861729
0.000851828
0.000851646
0.000851844
0.000852383
0.000853148
0.000854015
0.00085497
0.000855924
0.000856893
0.000857777
0.000858647
0.000859384
0.0008601
0.000860653
0.000861191
0.000861552
0.000861891
0.000862107
0.000851787
0.000851489
0.000851472
0.000851727
0.000852165
0.000852689
0.000853265
0.000853843
0.000854417
0.000854947
0.000855452
0.000855899
0.000856317
0.000856676
0.000857003
0.000857286
0.000857509
0.000857756
0.000851773
0.000851429
0.000851313
0.000851431
0.000851702
0.000852049
0.000852427
0.000852803
0.000853158
0.000853477
0.000853757
0.000853997
0.000854197
0.000854364
0.000854494
0.000854603
0.000854673
0.000854743
0.000851789
0.00085147
0.00085137
0.000851494
0.000851755
0.000852084
0.00085243
0.000852772
0.000853081
0.000853355
0.000853576
0.00085376
0.000853892
0.000853994
0.000854047
0.000854083
0.000854072
0.000854055
0.000851858
0.000851635
0.000851715
0.000852043
0.0008525
0.000853028
0.000853533
0.000854029
0.000854423
0.000854753
0.00085493
0.000855033
0.000854967
0.000854845
0.000854534
0.000854215
0.000853666
0.000853202
0.000852113
0.000851817
0.000852388
0.000853075
0.000853872
0.000854542
0.000854894
0.000855032
0.000854565
0.000853722
0.000852193
0.000850412
0.000847988
0.000845362
0.00084215
0.000838895
0.00083513
0.000831651
0.000853152
0.000851572
0.00085376
0.000854078
0.000853806
0.000851056
0.000847507
0.000841701
0.000833092
0.000823438
0.000811701
0.000799916
0.000786622
0.000774383
0.000760786
0.000749143
0.000735688
0.00072534
0.000857181
0.000850806
0.000854307
0.00084184
0.000828917
0.000804471
0.000773297
0.000739598
0.000703782
0.000670689
0.000637858
0.000609523
0.000581551
0.000558504
0.000535026
0.000516791
0.000496875
0.000482795
0.00087957
0.000842344
0.00082458
0.000742943
0.000662959
0.000578199
0.000504004
0.000444943
0.00039638
0.00035891
0.000327374
0.000302816
0.000280617
0.000263672
0.000247453
0.000235737
0.000223206
0.000215005
0.00131172
0.000695771
0.000574989
0.000393134
0.000282369
0.000216262
0.000174852
0.000147855
0.00012875
0.000115199
0.000104711
9.69331e-05
9.07437e-05
8.59944e-05
8.1893e-05
7.8612e-05
7.56454e-05
7.34198e-05
0.00177667
0.000309435
0.000157219
8.816e-05
6.30848e-05
5.11774e-05
4.46097e-05
4.072e-05
3.83075e-05
3.69227e-05
3.5956e-05
3.5565e-05
3.53533e-05
3.55474e-05
3.57873e-05
3.6171e-05
3.67412e-05
3.73984e-05
0.000357368
5.20951e-05
2.75101e-05
2.44772e-05
2.48535e-05
2.66784e-05
2.88147e-05
3.11474e-05
3.3695e-05
3.61423e-05
3.86846e-05
4.10435e-05
4.35298e-05
4.57008e-05
4.81414e-05
5.01871e-05
5.2442e-05
5.44249e-05
0.000289055
1.99191e-05
3.07076e-05
3.98948e-05
4.69362e-05
5.28168e-05
5.804e-05
6.23645e-05
6.56658e-05
6.85265e-05
7.09289e-05
7.2836e-05
7.44612e-05
7.57677e-05
7.69143e-05
7.78262e-05
7.86545e-05
7.93075e-05
3.30875e-05
7.23641e-05
9.41255e-05
9.87534e-05
0.000102906
0.000102598
0.000100789
9.84323e-05
9.59365e-05
9.35294e-05
9.13264e-05
8.93359e-05
8.75752e-05
8.6006e-05
8.463e-05
8.33947e-05
8.23127e-05
8.13245e-05
0.000153724
0.000186735
0.000179995
0.000163392
0.000150194
0.000141163
0.000134378
0.000128804
0.000124117
0.000120165
0.000116809
0.000113931
0.00011144
0.000109265
0.000107348
0.000105647
0.000104117
0.000102761
9.0067e-06
2.10441e-05
2.31958e-05
2.5529e-05
2.78387e-05
2.99937e-05
3.19299e-05
3.36275e-05
3.50938e-05
3.63536e-05
3.74292e-05
3.83539e-05
3.91698e-05
3.99382e-05
4.07665e-05
4.18635e-05
4.34492e-05
4.50921e-05
4.67523e-05
4.84233e-05
5.01026e-05
5.17898e-05
5.34852e-05
5.51899e-05
5.69053e-05
5.86331e-05
6.03746e-05
6.21313e-05
6.39042e-05
6.56945e-05
6.75026e-05
6.93292e-05
7.11743e-05
7.3038e-05
7.49197e-05
7.68192e-05
7.87356e-05
8.0668e-05
8.26152e-05
8.45761e-05
8.6549e-05
8.85325e-05
9.05246e-05
9.25237e-05
9.45275e-05
9.65344e-05
9.85423e-05
0.000100549
0.000102554
0.000104555
0.00010655
0.000108536
0.000110507
0.000112461
0.000114397
0.000116314
0.00011821
0.000120081
0.000121928
0.000123747
0.000125538
0.000127299
0.00012903
0.000130728
0.000132393
0.000134024
0.000135622
0.000137186
0.000138716
0.000140213
0.000141676
0.000143106
0.000144505
0.000145876
0.00014722
0.000148541
0.000149841
0.000151123
0.000152389
0.000153643
0.000154887
0.000156124
0.000157354
0.000158587
0.000159827
0.000161075
0.000162336
0.000163611
0.000164901
0.000166212
0.000167545
0.000168898
0.000170265
0.000171643
0.000173024
0.000174404
0.000175773
0.000177123
0.000178447
0.000179725
0.000180945
0.000182089
0.000183096
0.000183908
0.000185308
0.000186053
0.000186322
0.000186802
0.000187002
0.000187087
0.000186985
0.000186706
0.000186233
0.000185565
0.000184691
0.000183619
0.000182254
0.000180844
0.00017902
0.000177097
0.000174951
0.000172591
0.000170015
0.00016723
0.000164237
0.000161052
0.000157681
0.000154142
0.000150434
0.000146586
0.000142903
0.000138755
0.000131385
0.000119959
0.000119692
0.000121273
0.000123142
0.000125052
0.000126943
0.000128788
0.000130614
0.000132375
0.000134032
0.000135594
0.000136994
0.000138282
0.000139434
0.000140435
0.000141268
0.000141992
0.000142511
0.000143017
0.000143099
0.00014324
0.000143229
0.000143048
0.000142695
0.000142198
0.000141582
0.000140859
0.000140044
0.000139148
0.000138184
0.000137165
0.0001361
0.000135001
0.000133876
0.000132732
0.000131577
0.000130415
0.000129247
0.000128071
0.000126883
0.000125671
0.000124418
0.000123078
0.000121675
0.00011985
0.00011823
0.000113763
1.05115e-05
2.14635e-05
4.04451e-05
6.33232e-05
8.56629e-05
0.000105513
0.00012279
0.000137933
0.000151438
0.000163676
0.000175049
0.000185847
0.0001962
0.00020608
0.000215304
0.000223529
0.000230361
0.000235755
0.000240122
0.000243849
0.000247203
0.000250345
0.00025337
0.000256327
0.000259251
0.000262158
0.000265065
0.000267978
0.000270908
0.000273858
0.000276837
0.000279847
0.000282896
0.000285987
0.000289127
0.00029232
0.000295574
0.000298892
0.000302281
0.000305744
0.000309285
0.000312904
0.000316605
0.000320385
0.000324246
0.000328184
0.000332198
0.000336286
0.000340448
0.000344687
0.00034902
0.000353471
0.000357968
0.000362501
0.000367066
0.000371651
0.000376249
0.000380846
0.000385432
0.000389992
0.000394514
0.000398984
0.000403386
0.000407706
0.00041193
0.000416041
0.000420028
0.000423874
0.000427569
0.000431088
0.000434348
0.000437406
0.000440255
0.000442891
0.000445317
0.000447536
0.000449557
0.000451387
0.00045304
0.000454527
0.000455862
0.000457051
0.000458084
0.00045906
0.000460031
0.00046104
0.000462148
0.000463409
0.000464876
0.000466608
0.000468649
0.000471052
0.000473862
0.000477132
0.000480907
0.000485239
0.000490174
0.000495767
0.00050208
0.000509212
0.000517326
0.000527533
0.000535413
0.0005426
0.00055483
0.000567835
0.000579147
0.000589976
0.000599373
0.000612427
0.000625825
0.000639999
0.000654911
0.000670536
0.000686847
0.00070381
0.000720125
0.000739906
0.000757481
0.00077683
0.000796639
0.00081667
0.000836786
0.000856866
0.000876762
0.00089635
0.000915469
0.000934002
0.000951734
0.000968557
0.000985078
0.000999464
0.00100607
0.000974237
0.000935248
0.000894137
0.000852688
0.000811682
0.000771549
0.00073259
0.000695087
0.000659046
0.00062418
0.00059083
0.000558945
0.00052842
0.000500224
0.000473431
0.0004482
0.000424811
0.000403043
0.000383035
0.000364263
0.000346884
0.000330869
0.000315912
0.000301947
0.000289101
0.000277403
0.000266751
0.000257075
0.000248307
0.000240385
0.000233248
0.000226835
0.000221092
0.000215964
0.000211401
0.000207356
0.000203784
0.000200642
0.000197894
0.0001955
0.000193437
0.000191642
0.000190196
0.000188779
0.000188098
0.000185847
0.000183104
1.25762e-05
2.85356e-05
6.34439e-05
0.000113699
0.000168269
0.000219437
0.000264429
0.000303279
0.000336926
0.000366405
0.000392618
0.000416246
0.000437737
0.000457321
0.000475056
0.000490908
0.000504868
0.000517104
0.000527951
0.000537775
0.000546891
0.000555537
0.000563883
0.000572045
0.000580113
0.000588151
0.000596204
0.000604311
0.0006125
0.000620794
0.000629203
0.00063774
0.000646423
0.000655264
0.000664275
0.000673466
0.00068285
0.000692437
0.000702239
0.000712266
0.000722524
0.000733017
0.000743746
0.000754709
0.000765901
0.000777314
0.000788939
0.000800762
0.000812767
0.000824927
0.000837205
0.000849546
0.000862005
0.000874588
0.000887283
0.00090007
0.000912927
0.000925826
0.00093874
0.00095164
0.000964495
0.000977273
0.000989941
0.00100246
0.00101481
0.00102694
0.00103883
0.00105044
0.00106172
0.00107266
0.0010832
0.00109337
0.00110313
0.0011125
0.00112146
0.00113001
0.00113818
0.00114598
0.00115343
0.00116058
0.00116747
0.00117417
0.00118078
0.0011873
0.00119377
0.00120025
0.00120681
0.00121349
0.00122033
0.00122766
0.00123562
0.00124432
0.00125385
0.0012643
0.00127576
0.00128831
0.00130204
0.00131702
0.00133332
0.001351
0.00137008
0.00139091
0.00140995
0.00143014
0.00145388
0.00147742
0.00149919
0.00152102
0.00154241
0.00156645
0.00159238
0.0016182
0.00164467
0.0016717
0.00169886
0.0017259
0.00175223
0.00177964
0.00180443
0.00182896
0.00185324
0.00187643
0.00189821
0.00191837
0.00193667
0.00195294
0.00196696
0.00197861
0.0019876
0.00199396
0.00199778
0.00199757
0.00198964
0.00195493
0.00190608
0.00185027
0.00179102
0.00173003
0.00166818
0.00160613
0.00154443
0.00148358
0.00142363
0.00136507
0.00130686
0.00124994
0.00119496
0.00114158
0.00108997
0.00104039
0.000992811
0.000947461
0.000904067
0.000862682
0.000823406
0.000786074
0.000750596
0.000716968
0.000685239
0.00065561
0.000628126
0.000602767
0.000579492
0.000558241
0.000538943
0.000521513
0.00050586
0.000491881
0.000479471
0.00046852
0.000458908
0.000450527
0.000443239
0.000436976
0.000431449
0.000427
0.000422339
0.000418781
0.000410824
0.000396022
1.44109e-05
3.62092e-05
8.72463e-05
0.000162924
0.000246303
0.000325421
0.000395785
0.000456892
0.000509666
0.000555433
0.000595472
0.000630856
0.000662424
0.000690791
0.000716405
0.000739599
0.000760668
0.000779922
0.000797699
0.000814335
0.000830133
0.00084534
0.000860141
0.000874679
0.000889112
0.000903546
0.000918064
0.000932732
0.000947617
0.000962796
0.000978386
0.000994378
0.00101072
0.00102739
0.0010444
0.00106176
0.00107947
0.00109755
0.001116
0.00113485
0.00115409
0.00117373
0.00119376
0.00121417
0.00123494
0.00125606
0.00127751
0.00129926
0.00132128
0.00134355
0.00136603
0.0013887
0.00141154
0.00143453
0.00145766
0.00148088
0.00150415
0.00152745
0.00155072
0.00157394
0.00159705
0.00162001
0.00164278
0.00166532
0.00168758
0.00170953
0.00173111
0.0017523
0.00177305
0.00179333
0.00181312
0.00183241
0.00185117
0.00186941
0.00188711
0.00190428
0.00192094
0.00193709
0.00195278
0.00196804
0.00198291
0.00199745
0.00201172
0.00202578
0.00203969
0.00205351
0.00206734
0.00208122
0.00209531
0.00210963
0.00212442
0.00213977
0.00215576
0.00217246
0.00218995
0.00220827
0.00222748
0.00224762
0.0022687
0.0022907
0.0023135
0.0023369
0.00235963
0.00238319
0.00240835
0.00243329
0.0024574
0.00248141
0.00250544
0.00253063
0.00255646
0.00258165
0.002607
0.00263323
0.00265872
0.00268297
0.00270602
0.00272753
0.00274674
0.00276493
0.00278158
0.00279615
0.00280835
0.00281797
0.00282481
0.0028287
0.00282951
0.00282712
0.00282152
0.00281284
0.00280073
0.00278409
0.00276034
0.00272168
0.00267208
0.00261532
0.00255415
0.00249028
0.00242432
0.00235713
0.00228929
0.00222138
0.00215352
0.00208619
0.00201982
0.00195502
0.00189105
0.00182778
0.0017657
0.00170471
0.00164498
0.00158666
0.00152968
0.00147411
0.00142008
0.00136759
0.00131668
0.0012674
0.00121989
0.00117432
0.00113092
0.00108985
0.00105123
0.00101512
0.000981584
0.000950643
0.000922288
0.00089648
0.000873149
0.000852199
0.000833503
0.000816927
0.000802268
0.00078945
0.000777851
0.000768612
0.000756795
0.000749165
0.000732805
0.000705896
1.58016e-05
4.43097e-05
0.000111889
0.000210382
0.000317303
0.000418502
0.000508725
0.000587361
0.000655482
0.000714617
0.00076628
0.000811802
0.000852292
0.000888649
0.000921594
0.000951716
0.000979509
0.00100541
0.00102981
0.00105307
0.0010755
0.00109738
0.00111895
0.00114041
0.00116188
0.00118345
0.00120522
0.00122725
0.00124961
0.00127232
0.00129539
0.00131881
0.00134265
0.00136694
0.00139171
0.00141696
0.00144268
0.00146885
0.00149551
0.00152269
0.00155039
0.0015786
0.0016073
0.00163648
0.00166611
0.00169616
0.00172661
0.00175741
0.00178855
0.00181997
0.00185164
0.00188353
0.0019156
0.00194781
0.00198013
0.00201251
0.00204491
0.00207728
0.00210957
0.00214174
0.00217372
0.00220549
0.00223698
0.00226815
0.00229894
0.00232933
0.00235925
0.00238868
0.00241757
0.0024459
0.00247362
0.00250073
0.0025272
0.00255302
0.00257818
0.00260269
0.00262654
0.00264975
0.00267235
0.00269435
0.00271581
0.00273675
0.00275723
0.00277731
0.00279705
0.00281651
0.00283577
0.00285491
0.00287407
0.00289324
0.00291254
0.00293204
0.00295179
0.00297184
0.0029922
0.00301291
0.00303398
0.00305539
0.00307714
0.00309919
0.00312134
0.00314336
0.00316501
0.00318685
0.00320901
0.00323088
0.0032522
0.00327318
0.00329397
0.00331487
0.0033356
0.00335566
0.00337514
0.00339496
0.00341393
0.00343159
0.00344661
0.00345991
0.0034714
0.00348115
0.00348878
0.00349397
0.00349645
0.00349603
0.00349253
0.0034858
0.00347571
0.00346216
0.00344496
0.00342448
0.00340045
0.00337228
0.00333861
0.00329678
0.00324656
0.00319037
0.00313009
0.00306731
0.00300297
0.00293715
0.00287032
0.00280312
0.0027354
0.00266758
0.00260004
0.00253346
0.00246904
0.00240655
0.00234529
0.00228387
0.002223
0.00216251
0.00210246
0.00204291
0.00198398
0.00192575
0.0018683
0.00181177
0.00175631
0.00170213
0.0016495
0.00159869
0.00154996
0.00150351
0.00145954
0.00141821
0.00137966
0.00134395
0.00131113
0.00128119
0.00125405
0.00122963
0.00120772
0.00118826
0.00117053
0.00115575
0.00113857
0.00112521
0.00110305
0.00106759
1.67709e-05
5.30585e-05
0.000137699
0.000256691
0.000382945
0.000501642
0.000607592
0.000700263
0.000780879
0.000851118
0.000912652
0.000966988
0.00101542
0.00105903
0.00109872
0.00113524
0.00116922
0.0012012
0.00123163
0.0012609
0.00128936
0.0013173
0.00134494
0.0013725
0.00140013
0.00142793
0.00145602
0.00148447
0.00151334
0.00154267
0.00157248
0.0016028
0.00163366
0.00166509
0.00169711
0.00172973
0.00176297
0.00179686
0.00183134
0.00186641
0.00190202
0.00193817
0.00197483
0.00201196
0.00204953
0.00208751
0.00212587
0.00216455
0.00220352
0.00224274
0.00228217
0.00232177
0.00236148
0.00240128
0.00244112
0.00248094
0.00252071
0.00256038
0.00259989
0.0026392
0.00267827
0.00271704
0.00275546
0.00279349
0.00283108
0.00286819
0.00290477
0.00294078
0.00297618
0.00301095
0.00304503
0.00307842
0.00311108
0.00314299
0.00317414
0.00320452
0.00323412
0.00326294
0.003291
0.0033183
0.00334487
0.00337072
0.00339589
0.0034204
0.00344431
0.00346764
0.00349044
0.00351274
0.00353457
0.00355599
0.00357708
0.00359789
0.00361844
0.00363876
0.00365886
0.00367873
0.00369837
0.00371776
0.00373689
0.00375576
0.00377432
0.0037924
0.00380992
0.00382703
0.00384378
0.00385996
0.00387552
0.00389048
0.00390489
0.00391882
0.00393218
0.00394471
0.0039564
0.00396834
0.00397881
0.00398702
0.0039937
0.0039986
0.00400169
0.00400282
0.00400175
0.00399823
0.00399204
0.00398302
0.00397102
0.00395588
0.0039375
0.00391585
0.00389095
0.00386288
0.00383157
0.00379674
0.00375777
0.00371363
0.00366422
0.00361045
0.00355341
0.00349465
0.00343323
0.00337026
0.00330632
0.00324236
0.00317821
0.00311381
0.00304942
0.0029854
0.00292267
0.00286315
0.00280605
0.00275029
0.00269502
0.00263894
0.00258246
0.0025256
0.00246844
0.0024111
0.00235369
0.00229637
0.0022393
0.00218272
0.0021269
0.00207215
0.00201881
0.00196718
0.00191755
0.00187021
0.00182539
0.0017833
0.00174409
0.00170786
0.00167462
0.00164435
0.00161693
0.00159228
0.00156983
0.00155019
0.001531
0.00151118
0.00148927
0.00144724
1.74272e-05
6.24566e-05
0.000163898
0.000300694
0.000442818
0.000575701
0.00069452
0.000798831
0.000889951
0.000969651
0.00103972
0.00110178
0.00115726
0.00120739
0.00125318
0.0012955
0.00133508
0.00137253
0.00140837
0.00144302
0.00147685
0.00151017
0.00154322
0.00157622
0.00160933
0.00164268
0.00167637
0.00171049
0.0017451
0.00178024
0.00181595
0.00185224
0.00188916
0.0019267
0.00196489
0.00200372
0.00204319
0.00208331
0.00212404
0.00216536
0.00220724
0.00224966
0.00229257
0.00233595
0.00237975
0.00242394
0.00246847
0.00251331
0.00255841
0.00260374
0.00264923
0.00269486
0.00274058
0.00278635
0.00283211
0.00287784
0.00292347
0.00296896
0.00301427
0.00305935
0.00310415
0.00314862
0.00319271
0.00323638
0.00327957
0.00332225
0.00336435
0.00340584
0.00344667
0.00348679
0.00352618
0.00356478
0.00360256
0.00363949
0.00367554
0.00371068
0.0037449
0.00377817
0.00381049
0.00384184
0.00387222
0.00390163
0.00393008
0.00395758
0.00398414
0.00400977
0.00403449
0.00405832
0.00408127
0.00410338
0.00412468
0.00414519
0.00416492
0.00418387
0.00420205
0.00421944
0.00423603
0.00425182
0.00426677
0.00428091
0.00429419
0.00430656
0.00431799
0.00432854
0.00433823
0.00434703
0.00435497
0.00436207
0.0043683
0.00437364
0.0043783
0.00438213
0.00438528
0.00438759
0.00438851
0.00438786
0.00438579
0.00438219
0.00437695
0.00436995
0.00436099
0.00434985
0.00433634
0.00432035
0.00430178
0.00428044
0.00425618
0.00422902
0.00419904
0.00416632
0.00413085
0.00409257
0.00405125
0.00400654
0.00395842
0.00390727
0.0038537
0.0037984
0.00374146
0.0036833
0.00362435
0.00356589
0.00350659
0.00344708
0.0033876
0.00332839
0.00326995
0.00321479
0.00316307
0.00311346
0.00306509
0.00301706
0.00296815
0.00291798
0.00286666
0.00281433
0.00276114
0.00270725
0.00265284
0.00259813
0.0025434
0.00248897
0.0024352
0.00238246
0.0023311
0.00228148
0.00223394
0.00218878
0.00214624
0.00210651
0.00206973
0.00203593
0.00200509
0.00197715
0.00195172
0.00192896
0.00190789
0.00188682
0.00186616
0.0018197
1.82252e-05
7.14426e-05
0.000187012
0.00033835
0.000493899
0.000639122
0.000769315
0.000883949
0.000984386
0.00107248
0.00115014
0.00121909
0.00128088
0.00133685
0.00138812
0.00143565
0.00148025
0.00152257
0.0015632
0.00160259
0.00164113
0.00167916
0.00171693
0.00175465
0.00179251
0.00183064
0.00186914
0.0019081
0.00194759
0.00198764
0.0020283
0.00206958
0.00211151
0.00215409
0.00219731
0.00224119
0.00228571
0.00233085
0.00237659
0.00242291
0.00246977
0.00251715
0.002565
0.00261329
0.00266198
0.00271103
0.00276041
0.00281007
0.00285997
0.00291007
0.00296032
0.00301069
0.00306114
0.00311162
0.00316209
0.00321251
0.00326283
0.00331301
0.003363
0.00341275
0.00346223
0.00351137
0.00356014
0.00360847
0.00365632
0.00370364
0.00375036
0.00379644
0.00384183
0.00388646
0.00393029
0.00397327
0.00401533
0.00405644
0.00409654
0.00413559
0.00417355
0.00421038
0.00424604
0.00428051
0.00431375
0.00434573
0.00437646
0.00440589
0.00443403
0.00446086
0.00448638
0.00451059
0.00453347
0.00455505
0.00457532
0.00459429
0.00461196
0.00462832
0.00464336
0.00465707
0.00466945
0.00468048
0.00469017
0.0046985
0.00470549
0.00471112
0.00471539
0.00471837
0.0047201
0.00472055
0.00471989
0.00471819
0.00471541
0.00471113
0.00470658
0.00470106
0.00469468
0.00468721
0.00467863
0.00466887
0.00465797
0.00464586
0.00463247
0.00461772
0.00460147
0.00458346
0.00456353
0.00454161
0.00451781
0.00449177
0.00446321
0.00443222
0.00439897
0.00436352
0.00432592
0.00428619
0.00424431
0.00420022
0.00415395
0.00410574
0.0040559
0.00400481
0.00395273
0.00389985
0.00384643
0.00379334
0.00374025
0.00368731
0.00363458
0.00358222
0.00353047
0.00348144
0.00343599
0.00339299
0.0033516
0.00331107
0.00327056
0.0032293
0.00318608
0.00314111
0.00309456
0.00304661
0.00299748
0.00294737
0.00289658
0.00284533
0.00279401
0.00274301
0.00269274
0.00264361
0.00259604
0.00255039
0.00250696
0.00246606
0.00242789
0.00239258
0.00236019
0.00233069
0.00230384
0.00227959
0.00225757
0.00223588
0.00221856
0.00217056
1.9997e-05
7.50025e-05
0.000198633
0.000362653
0.000531707
0.000689373
0.000830815
0.000955362
0.00106454
0.00116038
0.00124494
0.00132012
0.00138759
0.0014488
0.00150496
0.00155712
0.00160614
0.00165275
0.00169755
0.00174104
0.00178364
0.00182569
0.00186746
0.00190917
0.00195101
0.00199311
0.00203559
0.00207853
0.00212199
0.00216602
0.00221066
0.00225592
0.00230181
0.00234834
0.00239551
0.0024433
0.00249172
0.00254073
0.00259031
0.00264044
0.00269108
0.00274221
0.0027938
0.0028458
0.00289818
0.0029509
0.00300394
0.00305724
0.00311078
0.00316451
0.0032184
0.00327241
0.00332651
0.00338065
0.00343479
0.0034889
0.00354294
0.00359686
0.00365061
0.00370416
0.00375745
0.00381044
0.00386307
0.00391529
0.00396704
0.00401827
0.00406891
0.0041189
0.00416817
0.00421666
0.00426429
0.00431101
0.00435674
0.00440141
0.00444495
0.00448731
0.0045284
0.00456817
0.00460657
0.00464352
0.00467899
0.00471291
0.00474525
0.00477597
0.00480502
0.00483238
0.00485802
0.00488191
0.00490404
0.00492439
0.00494295
0.00495971
0.00497465
0.00498778
0.00499907
0.00500852
0.00501613
0.00502189
0.0050258
0.00502788
0.00502813
0.00502658
0.00502323
0.0050182
0.00501162
0.00500322
0.00499351
0.00498248
0.00497039
0.00495683
0.00494239
0.00492699
0.00491065
0.00489339
0.00487525
0.00485626
0.00483648
0.00481587
0.0047944
0.00477209
0.00474893
0.00472449
0.00469865
0.00467131
0.00464228
0.00461157
0.00457876
0.00454504
0.00450978
0.00447297
0.00443465
0.0043949
0.00435376
0.00431132
0.00426766
0.00422294
0.00417737
0.0041312
0.00408467
0.00403793
0.00399082
0.003944
0.00389766
0.00385206
0.003807
0.00376266
0.003719
0.00367765
0.00363975
0.00360417
0.00357023
0.00353729
0.00350475
0.00347195
0.00343807
0.00340176
0.00336322
0.00332266
0.00328032
0.00323639
0.00319115
0.00314482
0.00309778
0.00305042
0.00300316
0.00295645
0.00291073
0.00286647
0.00282391
0.00278355
0.00274564
0.00271038
0.00267789
0.0026482
0.00262118
0.00259671
0.00257469
0.00255328
0.00253816
0.00249267
2.1656e-05
7.57186e-05
0.000202997
0.000376616
0.00055768
0.000726972
0.00087912
0.00101307
0.00113043
0.00123342
0.00132428
0.00140508
0.00147761
0.00154345
0.0016039
0.00166008
0.00171292
0.00176318
0.00181152
0.00185846
0.00190442
0.00194977
0.0019948
0.00203972
0.00208473
0.00212997
0.00217556
0.00222158
0.00226808
0.00231513
0.00236275
0.00241096
0.00245978
0.0025092
0.00255922
0.00260983
0.00266102
0.00271278
0.00276507
0.00281788
0.00287117
0.00292493
0.00297912
0.0030337
0.00308866
0.00314396
0.00319956
0.00325543
0.00331155
0.00336788
0.00342439
0.00348105
0.00353783
0.00359468
0.00365158
0.00370849
0.00376538
0.0038222
0.00387892
0.00393548
0.00399185
0.00404796
0.00410378
0.00415923
0.00421426
0.0042688
0.00432278
0.00437613
0.00442878
0.00448063
0.00453161
0.00458163
0.0046306
0.00467843
0.00472503
0.00477032
0.00481419
0.00485657
0.00489736
0.00493648
0.00497386
0.00500942
0.00504308
0.00507479
0.00510448
0.00513209
0.00515757
0.0051809
0.00520201
0.0052209
0.00523753
0.00525188
0.00526393
0.00527366
0.00528108
0.00528617
0.00528892
0.00528935
0.00528746
0.00528327
0.00527678
0.00526809
0.00525708
0.00524395
0.00522896
0.00521192
0.00519331
0.00517298
0.00515124
0.00512809
0.00510379
0.00507845
0.00505219
0.00502515
0.00499743
0.00496911
0.00494045
0.00491132
0.00488174
0.00485155
0.00481999
0.00478752
0.00475451
0.00472217
0.00468947
0.00465639
0.00462313
0.00458748
0.00455071
0.00451294
0.00447427
0.00443476
0.00439454
0.00435373
0.00431246
0.00427091
0.00422924
0.00418766
0.0041464
0.00410558
0.00406537
0.00402676
0.00398927
0.00395285
0.00391727
0.00388252
0.00384825
0.00381625
0.00378701
0.00375951
0.00373342
0.0037083
0.00368364
0.00365893
0.00363353
0.00360643
0.00357649
0.00354405
0.00350933
0.00347252
0.00343384
0.00339354
0.00335197
0.00330947
0.00326646
0.00322342
0.00318081
0.00313914
0.00309875
0.00306018
0.00302372
0.00298964
0.00295811
0.00292923
0.00290291
0.00287912
0.00285783
0.00283748
0.00282333
0.00278489
2.32266e-05
7.50649e-05
0.000203014
0.000383096
0.000573825
0.000753186
0.000914728
0.00105722
0.00118197
0.00129137
0.00138781
0.00147351
0.00155042
0.0016202
0.00168426
0.00174379
0.00179976
0.00185299
0.00190415
0.0019538
0.00200237
0.00205025
0.00209772
0.00214502
0.00219234
0.00223983
0.0022876
0.00233574
0.00238432
0.00243338
0.00248296
0.00253308
0.00258375
0.00263498
0.00268676
0.00273908
0.00279195
0.00284533
0.00289922
0.00295359
0.00300842
0.0030637
0.00311939
0.00317547
0.00323193
0.00328873
0.00334585
0.00340327
0.00346096
0.0035189
0.00357706
0.00363541
0.00369394
0.00375262
0.00381141
0.00387029
0.00392923
0.00398818
0.00404711
0.00410598
0.00416475
0.00422335
0.00428175
0.00433986
0.00439764
0.00445501
0.00451189
0.00456819
0.00462383
0.0046787
0.00473272
0.00478578
0.00483776
0.00488855
0.00493805
0.00498613
0.00503267
0.00507758
0.00512072
0.00516198
0.00520127
0.00523847
0.0052735
0.00530624
0.00533663
0.00536458
0.00539002
0.00541289
0.00543313
0.00545071
0.00546557
0.0054777
0.00548706
0.00549363
0.00549742
0.00549842
0.00549662
0.00549202
0.00548465
0.00547452
0.00546162
0.00544606
0.00542786
0.00540708
0.00538394
0.0053585
0.00533105
0.00530168
0.00527059
0.00523794
0.00520396
0.00516886
0.00513281
0.0050961
0.00505887
0.00502115
0.004983
0.00494323
0.00490335
0.0048639
0.00482733
0.00479263
0.00475831
0.00472207
0.00468591
0.00465049
0.00461223
0.00457466
0.00453687
0.00449879
0.00446045
0.00442193
0.00438333
0.00434483
0.0043066
0.00426882
0.00423164
0.00419525
0.00415985
0.00412546
0.00409171
0.00405982
0.00402955
0.00400088
0.0039738
0.00394876
0.00392614
0.00390534
0.00388631
0.00386767
0.00385009
0.00383322
0.00381669
0.00380008
0.0037829
0.00376441
0.00374316
0.00371911
0.00369242
0.00366322
0.00363168
0.00359802
0.00356253
0.00352559
0.00348762
0.00344911
0.00341054
0.00337245
0.00333517
0.00329921
0.00326496
0.00323276
0.00320286
0.00317539
0.00315041
0.00312791
0.00310785
0.00308905
0.00307562
0.00304381
2.46905e-05
7.35426e-05
0.000199933
0.00038362
0.000581483
0.000769039
0.000938292
0.00108792
0.00121891
0.00133368
0.00143476
0.00152447
0.00160489
0.00167779
0.00174464
0.00180669
0.00186498
0.00192035
0.0019735
0.00202501
0.00207533
0.00212484
0.00217385
0.00222259
0.00227126
0.00232002
0.00236897
0.00241821
0.0024678
0.00251781
0.00256827
0.00261919
0.0026706
0.00272251
0.00277492
0.00282782
0.00288121
0.00293509
0.00298943
0.00304424
0.00309949
0.00315517
0.00321126
0.00326775
0.00332463
0.00338188
0.00343948
0.00349742
0.00355568