/*--------------------------------*- C++ -*----------------------------------*\
| =========                 |                                                 |
| \\      /  F ield         | OpenFOAM: The Open Source CFD Toolbox           |
|  \\    /   O peration     | Version:  2412                                  |
|   \\  /    A nd           | Website:  www.openfoam.com                      |
|    \\/     M anipulation  |                                                 |
\*---------------------------------------------------------------------------*/
FoamFile
{
    version     2.0;
    format      ascii;
    arch        "LSB;label=32;scalar=64";
    class       volScalarField;
    location    "100";
    object      p;
}
// * * * * * * * * * * * * * * * * * * * * * * * * * * * * * * * * * * * * * //

dimensions      [0 2 -2 0 0 0 0];

internalField   nonuniform List<scalar> 
12225
(
25.9922
7.82255
2.24195
1.5405
0.800287
-0.0735675
-0.768776
-1.31855
-1.80066
-2.2484
-2.67493
-3.08968
-3.50108
-3.91704
-4.34472
-4.79611
-5.27214
-5.79378
20.2103
7.36661
2.50959
1.64987
0.855295
-0.0418143
-0.748946
-1.30147
-1.78525
-2.23528
-2.66376
-3.07994
-3.49239
-3.90911
-4.33688
-4.78739
-5.26218
-5.78905
16.5006
7.74292
3.00767
1.80372
0.964487
0.0480679
-0.686593
-1.25391
-1.74584
-2.20227
-2.63537
-3.05433
-3.46816
-3.88484
-4.30995
-4.75141
-5.19263
-5.60505
14.3765
8.1797
3.51257
1.9797
1.11732
0.199091
-0.567953
-1.15889
-1.66443
-2.13146
-2.57243
-2.99587
-3.41093
-3.82505
-4.24153
-4.66132
-5.05042
-5.36778
12.535
8.08173
3.85539
2.16369
1.28412
0.379562
-0.4101
-1.02407
-1.54275
-2.01929
-2.46732
-2.894
-3.30768
-3.71458
-4.11499
-4.50347
-4.83996
-5.09085
10.8385
7.66723
4.07716
2.34763
1.43826
0.555718
-0.238985
-0.868944
-1.39739
-1.87963
-2.33108
-2.75734
-3.16508
-3.55901
-3.93684
-4.28927
-4.58001
-4.78232
9.46347
7.15257
4.18554
2.49874
1.56225
0.707484
-0.0752298
-0.711726
-1.24555
-1.72899
-2.17922
-2.60076
-2.99847
-3.37544
-3.72807
-4.0458
-4.30049
-4.47035
8.38616
6.63365
4.18948
2.59887
1.65464
0.830793
0.0708717
-0.563706
-1.09878
-1.57991
-2.02525
-2.43892
-2.82429
-3.1831
-3.51157
-3.79987
-4.02868
-4.18119
7.44224
6.13481
4.1286
2.66001
1.726
0.932553
0.199852
-0.426619
-0.959549
-1.43614
-1.87445
-2.27865
-2.65104
-2.99246
-3.29969
-3.56476
-3.77566
-3.92066
6.60041
5.64515
4.02326
2.69419
1.78535
1.02194
0.318112
-0.295809
-0.8238
-1.29456
-1.72487
-2.11906
-2.47879
-2.80447
-3.09377
-3.34105
-3.53959
-3.68196
5.88137
5.18394
3.88432
2.70303
1.83397
1.10281
0.429564
-0.167865
-0.688022
-1.15165
-1.57331
-1.9574
-2.30521
-2.61715
-2.89185
-3.12591
-3.31623
-3.45849
5.31912
4.78882
3.73192
2.68757
1.86721
1.1691
0.525819
-0.0531187
-0.563283
-1.01886
-1.43191
-1.80668
-2.14439
-2.44556
-2.70965
-2.93494
-3.1205
-3.26387
4.8383
4.42622
3.56926
2.65504
1.88906
1.22627
0.614256
0.0562509
-0.441551
-0.887568
-1.29125
-1.65664
-1.98493
-2.27678
-2.53233
-2.75117
-2.93379
-3.07909
4.37304
4.05721
3.38068
2.60135
1.90172
1.28127
0.705457
0.173549
-0.307513
-0.740886
-1.13306
-1.48763
-1.80584
-2.0885
-2.33632
-2.5499
-2.73073
-2.87879
3.94404
3.70448
3.1792
2.52989
1.90527
1.33304
0.796945
0.295567
-0.164342
-0.581911
-0.960533
-1.303
-1.61063
-1.8844
-2.12541
-2.3349
-2.51491
-2.66614
3.57821
3.39588
2.98809
2.45329
1.90504
1.38362
0.888234
0.419573
-0.0160746
-0.415369
-0.778987
-1.1086
-1.4055
-1.67082
-1.90588
-2.11219
-2.29195
-2.44638
3.31039
3.16751
2.84226
2.39609
1.91458
1.44022
0.982322
0.544695
0.133408
-0.247068
-0.595518
-0.912526
-1.19918
-1.45673
-1.68659
-1.89033
-2.06999
-2.22719
3.1915
3.07075
2.79134
2.39719
1.95853
1.51678
1.08576
0.671235
0.27917
-0.0856719
-0.421234
-0.72749
-1.00538
-1.25625
-1.4816
-1.683
-1.86227
-2.02125
3.30757
3.18732
2.90772
2.51316
2.07561
1.63736
1.21163
0.803239
0.417674
0.0595127
-0.269456
-0.569556
-0.842044
-1.08853
-1.31074
-1.51045
-1.6894
-1.84978
3.71758
3.5639
3.21548
2.74493
2.25001
1.77516
1.32471
0.89847
0.501355
0.137267
-0.19382
-0.49389
-0.765141
-1.00968
-1.22966
-1.42723
-1.60434
-1.76355
4.26467
4.05402
3.58667
2.99205
2.41157
1.88491
1.39786
0.943946
0.528784
0.155051
-0.18038
-0.481848
-0.75267
-0.99558
-1.21323
-1.40821
-1.58273
-1.73967
4.97219
4.66131
4.00024
3.22795
2.5442
1.96129
1.43269
0.947236
0.5132
0.130528
-0.20839
-0.510351
-0.779645
-1.01974
-1.23398
-1.42543
-1.59651
-1.75023
5.84401
5.36619
4.41485
3.42003
2.63407
1.9997
1.42889
0.913223
0.464334
0.0761582
-0.264285
-0.565373
-0.831788
-1.06776
-1.27747
-1.46459
-1.63179
-1.78234
6.89478
6.14815
4.78679
3.54914
2.68605
2.00797
1.39201
0.848137
0.389754
0.000134789
-0.339526
-0.638239
-0.900659
-1.13166
-1.33613
-1.51832
-1.68135
-1.8291
8.15606
6.9964
5.06522
3.58205
2.68585
1.97885
1.32102
0.754587
0.291357
-0.0974643
-0.434804
-0.729544
-0.986692
-1.21179
-1.41022
-1.58626
-1.74377
-1.88577
9.69959
7.91318
5.23536
3.51683
2.61217
1.88253
1.19757
0.624971
0.165598
-0.21811
-0.549008
-0.83552
-1.08383
-1.30029
-1.49049
-1.65829
-1.80808
-1.93915
11.5114
8.66324
5.25406
3.4302
2.51557
1.7432
1.04498
0.484149
0.0365954
-0.338457
-0.659875
-0.935828
-1.17389
-1.38119
-1.56322
-1.72359
-1.86691
-1.98967
13.6171
8.70808
4.84697
3.27184
2.41008
1.5959
0.895795
0.352832
-0.0817788
-0.447229
-0.758486
-1.02435
-1.25345
-1.45302
-1.62839
-1.78293
-1.92111
-2.04016
17.2937
8.62418
4.21318
3.02603
2.27481
1.46647
0.78582
0.261429
-0.161344
-0.516152
-0.816715
-1.07323
-1.29489
-1.48861
-1.65935
-1.81036
-1.94549
-2.06369
23.503
9.69371
3.93842
2.80128
2.13914
1.38487
0.743023
0.236887
-0.17963
-0.53144
-0.829931
-1.08512
-1.30594
-1.49905
-1.66927
-1.8199
-1.95457
-2.07312
-4.59712
-4.59635
-4.59612
-4.59689
-4.59865
-4.60138
-4.60499
-4.60937
-4.61442
-4.61998
-4.62598
-4.6323
-4.63888
-4.64564
-4.65256
-4.65959
-4.66671
-4.67388
-4.68112
-4.6884
-4.69574
-4.70314
-4.71065
-4.71826
-4.72601
-4.7339
-4.74195
-4.75015
-4.75851
-4.76701
-4.77566
-4.78442
-4.79328
-4.8022
-4.81117
-4.82011
-4.82901
-4.83779
-4.84643
-4.85483
-4.86294
-4.87069
-4.87801
-4.88479
-4.89098
-4.89647
-4.90117
-4.90498
-4.9078
-4.90952
-4.91005
-4.90927
-4.90709
-4.90339
-4.89808
-4.89104
-4.88217
-4.87137
-4.85854
-4.84357
-4.82638
-4.80687
-4.78495
-4.76055
-4.73355
-4.70391
-4.67151
-4.63629
-4.59812
-4.55695
-4.51264
-4.46514
-4.41428
-4.36002
-4.30214
-4.24059
-4.17508
-4.10546
-4.03139
-3.95271
-3.869
-3.77997
-3.68512
-3.58416
-3.47648
-3.36168
-3.23906
-3.10787
-2.96714
-2.81604
-2.65422
-2.48065
-2.2942
-2.09357
-1.87757
-1.64483
-1.39416
-1.12421
-0.833796
-0.521668
-0.186672
0.172391
0.556821
0.967746
1.40705
1.87623
2.37684
2.90925
3.474
4.07065
4.69909
5.35817
6.04675
6.76262
7.50346
8.266
9.04668
9.84111
10.6446
11.452
12.2577
13.0561
13.8415
14.6084
15.3511
16.0651
16.7459
17.3907
17.9966
18.5622
19.0857
19.5652
19.9984
20.3847
20.725
21.0208
21.2739
21.4869
21.6623
21.8028
21.9112
21.9902
22.0423
22.0701
22.0763
22.0635
22.0342
21.9909
21.9356
21.8705
21.7975
21.7183
21.6343
21.547
21.4574
21.3665
21.2753
21.1844
21.0946
21.0064
20.9201
20.8362
20.7548
20.6762
20.6005
20.5278
20.4583
20.3919
20.3287
20.269
20.2127
20.1602
20.1118
20.0681
20.03
19.9986
19.9767
19.9641
19.9781
19.9736
-4.59676
-4.59606
-4.59564
-4.59625
-4.59779
-4.60011
-4.60316
-4.6068
-4.61099
-4.6156
-4.62058
-4.62585
-4.6314
-4.63713
-4.64306
-4.64913
-4.65534
-4.66163
-4.66804
-4.67452
-4.68113
-4.68784
-4.69471
-4.70171
-4.70888
-4.71621
-4.72373
-4.7314
-4.73925
-4.74725
-4.75542
-4.7637
-4.77211
-4.78059
-4.78914
-4.79769
-4.80622
-4.81467
-4.82298
-4.8311
-4.83896
-4.84649
-4.85361
-4.86025
-4.8663
-4.8717
-4.87633
-4.8801
-4.8829
-4.88464
-4.88519
-4.88448
-4.88235
-4.87876
-4.87351
-4.86658
-4.85778
-4.84707
-4.83428
-4.81939
-4.80221
-4.78275
-4.76079
-4.73637
-4.70928
-4.67956
-4.64699
-4.6116
-4.57318
-4.53178
-4.48715
-4.43936
-4.38813
-4.33352
-4.27526
-4.21336
-4.14746
-4.07752
-4.00316
-3.9243
-3.84044
-3.75139
-3.65663
-3.55591
-3.44859
-3.33437
-3.2125
-3.08226
-2.94249
-2.79276
-2.63249
-2.46088
-2.27665
-2.07859
-1.86543
-1.6359
-1.38866
-1.12236
-0.835665
-0.527253
-0.195953
0.1595
0.540325
0.948007
1.38379
1.84895
2.3444
2.87091
3.42883
4.01821
4.63864
5.2893
5.96884
6.67538
7.40651
8.15923
8.93005
9.71483
10.509
11.3076
12.1053
12.8967
13.6761
14.438
15.1771
15.8886
16.5684
17.2132
17.8204
18.3882
18.9149
19.3987
19.8377
20.2309
20.579
20.8831
21.1451
21.367
21.5512
21.7004
21.8172
21.9042
21.964
21.999
22.0121
22.0057
21.9825
21.9446
21.8945
21.8342
21.7655
21.6902
21.6098
21.5256
21.4388
21.3506
21.2617
21.173
21.0851
20.9985
20.9137
20.831
20.7508
20.6731
20.5983
20.5264
20.4574
20.3916
20.3289
20.2695
20.2135
20.1612
20.113
20.0695
20.0314
20
19.978
19.9646
19.9774
19.963
-4.59223
-4.59192
-4.59175
-4.5926
-4.5943
-4.59663
-4.59946
-4.60261
-4.60602
-4.60962
-4.61341
-4.61736
-4.6215
-4.62576
-4.63019
-4.63474
-4.63942
-4.6442
-4.64911
-4.65414
-4.65934
-4.66471
-4.67028
-4.67604
-4.68202
-4.6882
-4.6946
-4.7012
-4.70801
-4.71502
-4.72222
-4.72959
-4.73713
-4.7448
-4.75257
-4.7604
-4.76825
-4.77607
-4.78381
-4.79141
-4.7988
-4.80591
-4.81264
-4.81895
-4.8247
-4.82985
-4.83424
-4.83783
-4.84046
-4.84206
-4.84248
-4.84165
-4.83943
-4.83572
-4.83038
-4.82334
-4.81443
-4.80359
-4.79066
-4.7756
-4.75824
-4.73854
-4.71636
-4.69166
-4.66428
-4.63422
-4.60131
-4.56555
-4.52678
-4.48499
-4.44002
-4.39186
-4.34035
-4.28545
-4.227
-4.16495
-4.09905
-4.0292
-3.95514
-3.87671
-3.79354
-3.70539
-3.61184
-3.51257
-3.40707
-3.29495
-3.1756
-3.04819
-2.91179
-2.76575
-2.60975
-2.44288
-2.26385
-2.07161
-1.86478
-1.64222
-1.40245
-1.1442
-0.865972
-0.566516
-0.244545
0.10119
0.471981
0.869309
1.29431
1.74823
2.2319
2.74621
3.2915
3.86801
4.47537
5.11296
5.77953
6.4734
7.19226
7.93333
8.69326
9.46809
10.2534
11.0444
11.8358
12.6223
13.3983
14.1583
14.8971
15.6096
16.2918
16.9402
17.5521
18.1253
18.6582
19.149
19.5965
20
20.3596
20.6759
20.9504
21.1848
21.3814
21.5427
21.6712
21.7694
21.8399
21.8852
21.908
21.9109
21.8964
21.8668
21.8244
21.7713
21.7093
21.6402
21.5655
21.4866
21.4047
21.3209
21.236
21.151
21.0664
20.9829
20.9008
20.8206
20.7425
20.6668
20.5936
20.5231
20.4554
20.3906
20.3288
20.2701
20.2147
20.1628
20.1148
20.0713
20.0331
20.0011
19.978
19.9617
19.9699
19.9408
-4.58286
-4.58326
-4.58389
-4.58555
-4.58798
-4.59083
-4.59384
-4.59682
-4.59973
-4.60258
-4.60541
-4.60824
-4.61114
-4.61409
-4.61715
-4.62029
-4.62356
-4.62694
-4.63047
-4.63416
-4.63805
-4.64216
-4.64651
-4.65111
-4.65598
-4.6611
-4.66649
-4.67214
-4.67806
-4.68421
-4.69061
-4.69723
-4.70405
-4.71104
-4.71819
-4.72543
-4.73274
-4.74007
-4.74735
-4.75452
-4.76152
-4.76827
-4.77469
-4.78069
-4.78617
-4.79105
-4.79519
-4.79853
-4.80092
-4.80227
-4.80244
-4.80135
-4.79884
-4.79484
-4.78918
-4.7818
-4.77254
-4.76131
-4.74797
-4.73246
-4.71462
-4.6944
-4.67167
-4.64637
-4.61839
-4.58768
-4.55413
-4.51769
-4.47827
-4.43582
-4.39024
-4.34149
-4.28948
-4.23413
-4.17535
-4.11307
-4.04712
-3.97738
-3.90366
-3.82579
-3.74349
-3.6565
-3.56448
-3.46706
-3.36382
-3.25433
-3.13802
-3.01412
-2.88167
-2.74031
-2.5894
-2.42806
-2.25517
-2.06952
-1.86997
-1.6552
-1.42388
-1.1746
-0.90596
-0.61661
-0.305231
0.0294985
0.388992
0.774634
1.18774
1.62944
2.10073
2.60239
3.13495
3.69863
4.29327
4.91832
5.57273
6.25496
6.96285
7.69378
8.44451
9.21125
9.98967
10.775
11.5621
12.3455
13.1198
13.8794
14.6189
15.3335
16.0188
16.6713
17.2879
17.8662
18.4039
18.8996
19.3525
19.7627
20.1301
20.4553
20.7394
20.9839
21.191
21.3629
21.502
21.6107
21.6915
21.7469
21.7795
21.7919
21.7866
21.7659
21.7321
21.6872
21.633
21.5713
21.5036
21.4312
21.3554
21.2772
21.1977
21.1175
21.0375
20.9582
20.8799
20.8032
20.7283
20.6554
20.5848
20.5165
20.4508
20.3877
20.3273
20.2697
20.2151
20.1638
20.1161
20.0724
20.0336
20.0001
19.9744
19.953
19.9521
19.9096
-4.56958
-4.57093
-4.57287
-4.57593
-4.5797
-4.58363
-4.58734
-4.59066
-4.59362
-4.59625
-4.59866
-4.6009
-4.60306
-4.60518
-4.60733
-4.60951
-4.61179
-4.61417
-4.61672
-4.61942
-4.62236
-4.62552
-4.62897
-4.63269
-4.63673
-4.64106
-4.64571
-4.65067
-4.65595
-4.66152
-4.66739
-4.67352
-4.67992
-4.68653
-4.69333
-4.70028
-4.70733
-4.71443
-4.72152
-4.72853
-4.73539
-4.74202
-4.74833
-4.75424
-4.75962
-4.76441
-4.76846
-4.77169
-4.77397
-4.77519
-4.77522
-4.77395
-4.77125
-4.76702
-4.7611
-4.75341
-4.74381
-4.73221
-4.71846
-4.70249
-4.68417
-4.66344
-4.64017
-4.61431
-4.58575
-4.55445
-4.5203
-4.48328
-4.44329
-4.4003
-4.35424
-4.30507
-4.25272
-4.19714
-4.13826
-4.076
-4.01025
-3.94091
-3.86781
-3.79081
-3.70967
-3.62415
-3.53394
-3.43869
-3.33801
-3.23143
-3.11845
-2.99826
-2.87018
-2.73339
-2.58777
-2.43199
-2.26516
-2.08595
-1.89338
-1.68597
-1.46255
-1.22158
-0.961755
-0.681674
-0.379925
-0.0551548
0.294246
0.669544
1.07229
1.50348
1.96434
2.45549
2.97772
3.53115
4.11589
4.73135
5.37672
6.05047
6.75069
7.47482
8.21972
8.98169
9.75637
10.5391
11.3246
12.1077
12.8825
13.6437
14.3857
15.104
15.7937
16.4513
17.0731
17.6564
18.1987
18.6987
19.1556
19.5699
19.9419
20.2724
20.5623
20.8132
21.0271
21.2061
21.3524
21.4685
21.5567
21.6196
21.6596
21.6794
21.6813
21.6677
21.6408
21.6027
21.5552
21.5
21.4385
21.3721
21.302
21.2293
21.155
21.0797
21.0043
20.9292
20.855
20.782
20.7104
20.6407
20.5729
20.5072
20.4436
20.3824
20.3237
20.2674
20.2138
20.1631
20.1155
20.0714
20.0314
19.9958
19.9661
19.9385
19.9266
19.871
-4.55372
-4.55613
-4.55969
-4.56458
-4.57013
-4.57555
-4.58038
-4.58449
-4.58795
-4.59084
-4.5933
-4.59541
-4.5973
-4.59903
-4.6007
-4.60234
-4.60406
-4.60584
-4.60779
-4.60991
-4.61228
-4.61488
-4.6178
-4.62101
-4.62458
-4.62847
-4.63273
-4.63733
-4.64229
-4.64759
-4.65323
-4.65918
-4.66542
-4.67191
-4.67863
-4.68552
-4.69254
-4.69963
-4.70671
-4.71373
-4.7206
-4.72725
-4.73356
-4.73947
-4.74484
-4.7496
-4.75361
-4.75678
-4.75896
-4.76007
-4.75995
-4.75851
-4.75559
-4.7511
-4.74489
-4.73687
-4.72689
-4.71486
-4.70066
-4.68419
-4.66534
-4.64404
-4.62018
-4.59371
-4.56452
-4.53259
-4.49783
-4.46022
-4.41967
-4.37618
-4.32968
-4.28017
-4.22758
-4.17188
-4.11303
-4.05097
-3.98562
-3.91689
-3.84466
-3.76878
-3.68907
-3.6053
-3.51719
-3.42441
-3.32659
-3.22327
-3.11393
-2.99791
-2.87419
-2.7427
-2.60238
-2.45255
-2.2919
-2.1194
-1.93377
-1.7338
-1.51807
-1.28522
-1.03386
-0.762568
-0.469888
-0.15425
0.185853
0.551959
0.94542
1.3675
1.81929
2.30167
2.81532
3.36062
3.93762
4.54594
5.18476
5.85272
6.54798
7.26806
8.00988
8.7697
9.54323
10.3257
11.112
11.8966
12.6739
13.4383
14.1846
14.9076
15.6028
16.2661
16.8936
17.4825
18.03
18.5347
18.9961
19.4145
19.7905
20.125
20.4192
20.6747
20.8933
21.0773
21.2288
21.3501
21.4438
21.5122
21.5578
21.5831
21.5905
21.5822
21.5607
21.5278
21.4854
21.4352
21.3787
21.3172
21.2519
21.1838
21.1138
21.0428
20.9714
20.9001
20.8295
20.7599
20.6916
20.6247
20.5596
20.4963
20.4349
20.3756
20.3184
20.2633
20.2106
20.1603
20.1127
20.0679
20.0263
19.9879
19.9538
19.9193
19.8962
19.828
-4.53691
-4.54037
-4.54575
-4.5527
-4.56025
-4.5674
-4.57363
-4.57883
-4.5831
-4.58658
-4.58943
-4.59176
-4.59373
-4.59542
-4.59698
-4.59846
-4.59995
-4.60151
-4.60322
-4.60509
-4.60722
-4.60961
-4.61232
-4.61536
-4.61877
-4.62254
-4.62671
-4.63125
-4.63619
-4.64149
-4.64715
-4.65315
-4.65947
-4.66605
-4.67287
-4.67988
-4.68703
-4.69424
-4.70145
-4.70859
-4.71557
-4.72231
-4.7287
-4.73465
-4.74005
-4.7448
-4.74876
-4.75184
-4.75389
-4.75483
-4.75448
-4.75277
-4.74953
-4.74467
-4.73803
-4.72953
-4.719
-4.70639
-4.69154
-4.67438
-4.65479
-4.63272
-4.60806
-4.58076
-4.55075
-4.51799
-4.48241
-4.44401
-4.40273
-4.35858
-4.31152
-4.26154
-4.20862
-4.15276
-4.09392
-4.03207
-3.96717
-3.89913
-3.82788
-3.75328
-3.67517
-3.59335
-3.50757
-3.41752
-3.32281
-3.22304
-3.1177
-3.006
-2.88739
-2.76105
-2.62663
-2.48304
-2.32894
-2.1634
-1.98503
-1.79268
-1.58483
-1.36021
-1.11734
-0.854741
-0.570917
-0.264088
0.0671429
0.424554
0.809315
1.22299
1.6665
2.14106
2.64721
3.18563
3.75628
4.359
4.99293
5.65689
6.34901
7.06689
7.80743
8.56684
9.34091
10.1247
10.9132
11.7008
12.4819
13.2507
14.0021
14.7307
15.4318
16.1009
16.7345
17.329
17.8822
18.3921
18.8585
19.2814
19.6616
20.0001
20.2982
20.5577
20.7804
20.9685
21.1242
21.2499
21.3479
21.4208
21.471
21.5009
21.5129
21.5092
21.492
21.4634
21.4251
21.379
21.3264
21.2688
21.2073
21.143
21.0766
21.0092
20.9412
20.8732
20.8057
20.739
20.6734
20.6092
20.5464
20.4852
20.4257
20.368
20.3121
20.2581
20.206
20.1559
20.1079
20.0622
20.0187
19.9772
19.9382
19.8967
19.8633
19.7831
-4.52093
-4.52536
-4.53257
-4.54168
-4.55131
-4.56027
-4.56802
-4.57446
-4.57973
-4.58398
-4.58742
-4.5902
-4.59249
-4.59442
-4.59613
-4.59771
-4.59927
-4.60086
-4.6026
-4.60449
-4.60665
-4.60907
-4.61182
-4.61491
-4.6184
-4.62226
-4.62653
-4.63121
-4.63629
-4.64175
-4.6476
-4.6538
-4.66031
-4.66711
-4.67415
-4.68137
-4.68873
-4.69614
-4.70354
-4.71086
-4.71799
-4.72485
-4.73134
-4.73735
-4.74277
-4.7475
-4.7514
-4.75436
-4.75625
-4.75695
-4.75632
-4.75425
-4.75059
-4.74524
-4.73805
-4.72892
-4.71771
-4.70433
-4.68865
-4.67061
-4.65009
-4.62703
-4.60135
-4.57301
-4.54193
-4.50811
-4.4715
-4.43209
-4.38988
-4.34486
-4.29704
-4.24644
-4.19305
-4.1369
-4.07798
-4.0163
-3.95181
-3.88448
-3.81424
-3.74099
-3.66459
-3.58487
-3.50157
-3.41442
-3.32305
-3.22705
-3.12589
-3.01892
-2.90531
-2.78479
-2.65644
-2.51922
-2.37202
-2.21359
-2.04278
-1.85819
-1.65846
-1.44217
-1.20785
-0.953936
-0.678729
-0.38059
-0.0578146
0.291126
0.66774
1.07339
1.50935
1.97669
2.47626
3.00862
3.57398
4.17212
4.80235
5.46347
6.15365
6.87047
7.6108
8.3709
9.14647
9.93267
10.7243
11.5159
12.3016
13.0757
13.8328
14.5673
15.2744
15.9495
16.5888
17.189
17.7476
18.2629
18.7343
19.1618
19.5463
19.8888
20.1908
20.4541
20.6805
20.8723
21.0317
21.1611
21.2629
21.3397
21.3939
21.428
21.4441
21.4446
21.4315
21.4068
21.3722
21.3296
21.2804
21.2261
21.1678
21.1066
21.0434
20.979
20.9139
20.8487
20.7839
20.7197
20.6565
20.5944
20.5337
20.4743
20.4165
20.3601
20.3053
20.2521
20.2004
20.1503
20.1017
20.0547
20.0091
19.9643
19.9204
19.8721
19.8291
19.7381
-4.50768
-4.51287
-4.5218
-4.53297
-4.54462
-4.55535
-4.56459
-4.57227
-4.57854
-4.58361
-4.58771
-4.59103
-4.59376
-4.59605
-4.59807
-4.5999
-4.60169
-4.6035
-4.60543
-4.60752
-4.60986
-4.61247
-4.61542
-4.61872
-4.62241
-4.6265
-4.631
-4.63592
-4.64125
-4.64697
-4.65308
-4.65953
-4.66632
-4.67337
-4.68067
-4.68814
-4.69573
-4.70336
-4.71096
-4.71844
-4.72571
-4.73268
-4.73923
-4.74527
-4.75067
-4.75533
-4.7591
-4.76188
-4.76352
-4.76391
-4.7629
-4.76038
-4.75619
-4.75023
-4.74235
-4.73245
-4.7204
-4.7061
-4.68943
-4.67034
-4.64869
-4.62446
-4.59756
-4.56796
-4.53563
-4.50055
-4.46269
-4.4221
-4.37875
-4.3327
-4.28396
-4.23259
-4.1786
-4.12206
-4.06299
-4.00141
-3.93731
-3.8707
-3.80152
-3.72969
-3.6551
-3.5776
-3.49695
-3.41287
-3.32503
-3.233
-3.13629
-3.03417
-2.92615
-2.81129
-2.68934
-2.55876
-2.4186
-2.26752
-2.1044
-1.92775
-1.73623
-1.52836
-1.30253
-1.05718
-0.790394
-0.500658
-0.186016
0.154847
0.52377
0.921933
1.35094
1.8117
2.30539
2.83241
3.39321
3.98748
4.61471
5.27365
5.96254
6.67889
7.41956
8.18092
8.95861
9.74796
10.5435
11.3398
12.1308
12.9107
13.6737
14.4144
15.1274
15.8084
16.4533
17.0589
17.6226
18.143
18.6191
19.0512
19.4398
19.7862
20.092
20.3588
20.5888
20.784
20.9468
21.0796
21.185
21.2653
21.3232
21.361
21.381
21.3854
21.3762
21.3551
21.3242
21.2849
21.2389
21.1876
21.1323
21.0739
21.0134
20.9516
20.8891
20.8264
20.7639
20.702
20.6408
20.5807
20.5217
20.4639
20.4074
20.3522
20.2983
20.2457
20.1942
20.1438
20.0945
20.046
19.998
19.9498
19.9011
19.8464
19.7946
19.6942
-4.49894
-4.50456
-4.51486
-4.5278
-4.54123
-4.55356
-4.56415
-4.57293
-4.5801
-4.5859
-4.59061
-4.59444
-4.59762
-4.6003
-4.60266
-4.60481
-4.6069
-4.60898
-4.61118
-4.61354
-4.61615
-4.61902
-4.62224
-4.62581
-4.62978
-4.63414
-4.63893
-4.64412
-4.64974
-4.65575
-4.66214
-4.66888
-4.67593
-4.68326
-4.69081
-4.69851
-4.70632
-4.71414
-4.7219
-4.72952
-4.73689
-4.74392
-4.75049
-4.75649
-4.76181
-4.76632
-4.76989
-4.77241
-4.77371
-4.77369
-4.77218
-4.76909
-4.76424
-4.75755
-4.74884
-4.73803
-4.72497
-4.70959
-4.69175
-4.67141
-4.64846
-4.62286
-4.59454
-4.5635
-4.52969
-4.49315
-4.45387
-4.41188
-4.36723
-4.31998
-4.27016
-4.21789
-4.1632
-4.10618
-4.04688
-3.98537
-3.92166
-3.85577
-3.78769
-3.71737
-3.64471
-3.56955
-3.4917
-3.41089
-3.32678
-3.23894
-3.14688
-3.04998
-2.94734
-2.83883
-2.72316
-2.59949
-2.46644
-2.32289
-2.16749
-1.99887
-1.81556
-1.616
-1.39855
-1.1614
-0.902832
-0.620999
-0.314254
0.0190802
0.380582
0.771825
1.1942
1.64893
2.13704
2.6592
3.2157
3.8064
4.43076
5.08768
5.77541
6.49153
7.23297
7.99607
8.77657
9.56957
10.3697
11.1711
11.9677
12.7536
13.5226
14.2693
14.9882
15.6749
16.3251
16.9358
17.5043
18.0292
18.5097
18.9459
19.3384
19.6886
19.9979
20.2681
20.5015
20.7
20.8661
21.0022
21.1109
21.1946
21.2559
21.2973
21.321
21.3291
21.3235
21.3061
21.2786
21.2427
21.1999
21.1516
21.0991
21.0434
20.9855
20.9262
20.866
20.8055
20.7452
20.6853
20.626
20.5676
20.5102
20.4538
20.3985
20.3443
20.2911
20.2388
20.1874
20.1366
20.0864
20.0363
19.9859
19.9343
19.8809
19.8203
19.7607
19.6519
-4.49587
-4.50164
-4.5128
-4.52704
-4.54187
-4.55546
-4.56713
-4.5768
-4.58468
-4.59106
-4.59625
-4.60049
-4.60403
-4.60703
-4.60969
-4.61212
-4.61447
-4.61682
-4.61928
-4.6219
-4.62476
-4.6279
-4.63139
-4.63522
-4.63946
-4.64409
-4.64915
-4.65462
-4.6605
-4.66678
-4.67343
-4.68042
-4.68772
-4.69528
-4.70304
-4.71094
-4.71892
-4.72689
-4.73477
-4.74247
-4.74989
-4.75691
-4.76343
-4.76934
-4.7745
-4.77879
-4.78207
-4.78422
-4.78509
-4.78455
-4.78244
-4.77866
-4.77303
-4.76545
-4.75576
-4.74387
-4.72964
-4.713
-4.69381
-4.67203
-4.64756
-4.62038
-4.59044
-4.55774
-4.52226
-4.48405
-4.44313
-4.39957
-4.35343
-4.30481
-4.25379
-4.20048
-4.14498
-4.08741
-4.02783
-3.96635
-3.90303
-3.8379
-3.77098
-3.70224
-3.63159
-3.55891
-3.48401
-3.40661
-3.32638
-3.24291
-3.15568
-3.06398
-2.96729
-2.86473
-2.75571
-2.63895
-2.51308
-2.37702
-2.22934
-2.06866
-1.89343
-1.70195
-1.49259
-1.26335
-1.01265
-0.738424
-0.439242
-0.113162
0.241137
0.625578
1.0414
1.49014
1.97265
2.48988
3.04205
3.62925
4.25091
4.90607
5.59299
6.30928
7.05196
7.81725
8.60095
9.3979
10.2027
11.0092
11.8115
12.603
13.378
14.1302
14.8547
15.5465
16.2017
16.8168
17.3897
17.9187
18.4031
18.843
19.2391
19.5927
19.9054
20.179
20.4156
20.6174
20.7868
20.9262
21.0382
21.1254
21.1902
21.2351
21.2623
21.274
21.272
21.2582
21.2341
21.2016
21.162
21.1168
21.0671
21.0141
20.9587
20.9018
20.8439
20.7856
20.7273
20.6693
20.6118
20.555
20.499
20.4439
20.3897
20.3363
20.2837
20.2317
20.1802
20.129
20.0777
20.026
19.9732
19.9182
19.8603
19.7943
19.7277
19.6119
-4.49912
-4.50481
-4.5163
-4.53127
-4.54702
-4.56145
-4.57383
-4.58407
-4.5924
-4.59912
-4.60459
-4.60906
-4.61279
-4.61597
-4.6188
-4.6214
-4.62392
-4.62644
-4.62908
-4.63188
-4.63494
-4.63828
-4.64196
-4.646
-4.65045
-4.6553
-4.66057
-4.66625
-4.67235
-4.67883
-4.68569
-4.69288
-4.70036
-4.70808
-4.716
-4.72404
-4.73212
-4.74017
-4.7481
-4.75581
-4.76319
-4.77014
-4.77654
-4.78226
-4.78718
-4.79116
-4.79406
-4.79575
-4.79607
-4.7949
-4.79206
-4.78745
-4.78089
-4.77227
-4.76145
-4.74832
-4.73274
-4.71464
-4.6939
-4.67048
-4.64429
-4.61532
-4.58353
-4.54895
-4.51158
-4.4715
-4.42874
-4.38343
-4.33563
-4.2855
-4.23314
-4.1787
-4.1223
-4.06409
-4.00419
-3.94273
-3.87979
-3.81544
-3.74973
-3.68263
-3.61409
-3.54398
-3.47213
-3.39826
-3.32203
-3.24301
-3.16068
-3.07437
-2.98328
-2.887
-2.78445
-2.67444
-2.55575
-2.42705
-2.28701
-2.13413
-1.96677
-1.78324
-1.58167
-1.3603
-1.11723
-0.850768
-0.559096
-0.240516
0.106728
0.484314
0.893816
1.3366
1.81379
2.32625
2.87445
3.45845
4.07781
4.73155
5.418
6.13483
6.87898
7.6467
8.43356
9.23446
10.0437
10.8552
11.6626
12.4594
13.2395
13.9968
14.7261
15.4222
16.0815
16.7004
17.2769
17.8093
18.297
18.7401
19.1393
19.4961
19.8118
20.0886
20.3284
20.5335
20.7062
20.849
20.9646
21.0553
21.1238
21.1723
21.2032
21.2185
21.22
21.2097
21.1892
21.1601
21.1238
21.0817
21.035
20.9848
20.9321
20.8776
20.822
20.7658
20.7095
20.6533
20.5975
20.5423
20.4877
20.4339
20.3807
20.3281
20.276
20.2243
20.1727
20.1209
20.0686
20.0153
19.9601
19.902
19.8399
19.7688
19.6962
19.5743
-4.50901
-4.51447
-4.52578
-4.5409
-4.55701
-4.57179
-4.58442
-4.59482
-4.60325
-4.61
-4.61546
-4.61989
-4.62358
-4.62672
-4.62952
-4.63211
-4.63464
-4.63718
-4.63987
-4.64273
-4.64586
-4.64928
-4.65306
-4.65721
-4.66177
-4.66673
-4.67213
-4.67793
-4.68415
-4.69075
-4.69772
-4.70501
-4.71259
-4.7204
-4.72838
-4.73646
-4.74456
-4.7526
-4.76049
-4.76811
-4.77537
-4.78215
-4.78832
-4.79376
-4.79833
-4.8019
-4.80431
-4.80542
-4.80508
-4.80314
-4.79945
-4.79386
-4.78623
-4.77642
-4.76429
-4.74974
-4.73263
-4.71288
-4.69039
-4.66511
-4.63698
-4.60599
-4.57213
-4.53545
-4.49597
-4.45379
-4.40899
-4.36171
-4.31206
-4.26022
-4.20633
-4.15057
-4.09309
-4.03411
-3.97375
-3.9122
-3.84956
-3.78594
-3.72138
-3.65592
-3.58949
-3.52198
-3.45322
-3.38292
-3.31075
-3.23626
-3.1589
-3.07796
-2.99286
-2.90267
-2.80678
-2.70365
-2.59213
-2.47083
-2.33839
-2.19326
-2.03367
-1.85796
-1.66408
-1.45046
-1.21498
-0.956148
-0.671833
-0.360525
-0.0201081
0.350878
0.754337
1.19147
1.66371
2.1718
2.71645
3.29767
3.91513
4.56775
5.25392
5.97133
6.7169
7.48694
8.2768
9.08139
9.89468
10.7106
11.5224
12.3237
13.1079
13.8693
14.602
15.3015
15.9636
16.5854
17.1644
17.6993
18.1895
18.6352
19.0371
19.3966
19.7153
19.995
20.238
20.4463
20.6225
20.7689
20.8882
20.9827
21.055
21.1074
21.1421
21.161
21.1663
21.1596
21.1427
21.1171
21.0843
21.0455
21.002
20.9547
20.9048
20.8528
20.7996
20.7457
20.6914
20.6371
20.5831
20.5294
20.4763
20.4236
20.3715
20.3197
20.2681
20.2166
20.1649
20.1127
20.0594
20.0044
19.9471
19.8859
19.82
19.7443
19.6663
19.5394
-4.52556
-4.53068
-4.54143
-4.55617
-4.57207
-4.58664
-4.59899
-4.60906
-4.61712
-4.62349
-4.62856
-4.63261
-4.63594
-4.63876
-4.64128
-4.64362
-4.64594
-4.64831
-4.65085
-4.65359
-4.65663
-4.65998
-4.66371
-4.66782
-4.67236
-4.67731
-4.6827
-4.6885
-4.69471
-4.70131
-4.70828
-4.71555
-4.72311
-4.73088
-4.73881
-4.74681
-4.75482
-4.76273
-4.77045
-4.77787
-4.78489
-4.79138
-4.79721
-4.80224
-4.80634
-4.80935
-4.81113
-4.81152
-4.81035
-4.80749
-4.80276
-4.79603
-4.78712
-4.77592
-4.76227
-4.74608
-4.72719
-4.70554
-4.68103
-4.65361
-4.62324
-4.58994
-4.55369
-4.51459
-4.47267
-4.42807
-4.3809
-4.33134
-4.27953
-4.22569
-4.17
-4.11269
-4.05396
-3.99403
-3.9331
-3.87136
-3.80896
-3.74604
-3.68267
-3.61889
-3.55465
-3.48985
-3.4243
-3.35773
-3.28978
-3.21998
-3.14773
-3.07246
-2.99316
-2.9096
-2.82032
-2.72422
-2.61989
-2.50602
-2.38115
-2.24362
-2.09171
-1.92353
-1.7373
-1.53111
-1.30319
-1.05159
-0.774483
-0.46991
-0.136034
0.228961
0.626764
1.0589
1.52665
2.03097
2.57249
3.15128
3.76695
4.41852
5.1044
5.82233
6.56929
7.34142
8.13403
8.94168
9.75834
10.5776
11.3927
12.197
12.9839
13.7477
14.4825
15.1837
15.8473
16.4705
17.0508
17.5872
18.0789
18.5264
18.9304
19.2922
19.6136
19.8962
20.1423
20.3539
20.5336
20.6838
20.807
20.9056
20.9819
21.0383
21.077
21.1
21.1092
21.1064
21.0933
21.0714
21.0422
21.0069
20.9668
20.9227
20.8757
20.8266
20.7759
20.7244
20.6723
20.6201
20.5679
20.5159
20.4642
20.4128
20.3618
20.3108
20.2599
20.2087
20.1569
20.1042
20.05
19.9936
19.9342
19.8703
19.8009
19.7212
19.6384
19.5074
-4.54861
-4.55329
-4.56322
-4.5771
-4.59221
-4.60596
-4.61742
-4.62657
-4.63371
-4.63918
-4.64338
-4.64663
-4.64921
-4.65136
-4.65327
-4.65507
-4.65691
-4.65885
-4.66102
-4.66344
-4.66619
-4.66928
-4.67278
-4.67668
-4.68102
-4.68579
-4.691
-4.69663
-4.70268
-4.70911
-4.71591
-4.72301
-4.73039
-4.73796
-4.74567
-4.75344
-4.76118
-4.7688
-4.77619
-4.78324
-4.78984
-4.79586
-4.80116
-4.8056
-4.80903
-4.8113
-4.81224
-4.81169
-4.80948
-4.80547
-4.79946
-4.79132
-4.78088
-4.768
-4.75253
-4.73437
-4.71338
-4.68949
-4.66261
-4.63271
-4.59975
-4.56376
-4.52478
-4.48288
-4.43818
-4.39082
-4.34097
-4.28882
-4.23461
-4.17855
-4.12089
-4.06189
-4.0018
-3.94087
-3.87936
-3.81745
-3.75536
-3.69325
-3.63119
-3.56925
-3.50738
-3.44549
-3.38336
-3.32073
-3.25718
-3.19219
-3.12539
-3.05572
-2.98285
-2.90559
-2.82313
-2.73396
-2.63673
-2.53009
-2.41255
-2.28229
-2.13767
-1.97665
-1.79766
-1.59852
-1.37765
-1.13276
-0.862207
-0.563698
-0.23564
0.124092
0.516957
0.94475
1.40852
1.90945
2.44801
3.02447
3.63843
4.28901
4.97465
5.69303
6.44109
7.21471
8.00919
8.81872
9.63738
10.4583
11.2749
12.0801
12.8679
13.6317
14.3666
15.0675
15.7308
16.3536
16.9339
17.4703
17.9627
18.4112
18.8167
19.1805
19.5041
19.7896
20.0388
20.254
20.4374
20.5916
20.719
20.8219
20.9026
20.9634
21.0064
21.0338
21.0472
21.0487
21.0398
21.022
20.9966
20.9652
20.9287
20.8881
20.8444
20.7983
20.7505
20.7015
20.6519
20.6019
20.5517
20.5015
20.4515
20.4015
20.3516
20.3017
20.2514
20.2006
20.1489
20.0958
20.0408
19.9831
19.9218
19.8554
19.7829
19.6996
19.6127
19.4782
-4.57885
-4.58303
-4.59192
-4.60448
-4.61813
-4.63029
-4.64008
-4.64754
-4.65302
-4.65691
-4.65963
-4.66151
-4.66286
-4.66389
-4.6648
-4.6657
-4.66674
-4.66798
-4.6695
-4.67133
-4.67354
-4.67613
-4.67915
-4.6826
-4.68651
-4.69085
-4.69563
-4.70084
-4.70647
-4.71248
-4.71886
-4.72552
-4.73245
-4.73956
-4.74679
-4.75404
-4.76125
-4.76829
-4.77508
-4.78147
-4.78737
-4.79262
-4.79711
-4.80065
-4.80312
-4.80434
-4.80414
-4.80236
-4.79881
-4.79333
-4.78573
-4.77588
-4.76357
-4.74869
-4.73106
-4.71061
-4.68716
-4.6607
-4.63109
-4.59836
-4.56245
-4.52345
-4.48137
-4.43637
-4.38856
-4.33816
-4.28535
-4.23042
-4.17358
-4.11517
-4.05542
-3.99467
-3.93318
-3.8713
-3.80922
-3.74722
-3.68562
-3.6244
-3.56389
-3.50393
-3.44471
-3.38588
-3.32747
-3.2689
-3.20994
-3.15018
-3.08872
-3.02513
-2.95832
-2.88761
-2.81173
-2.72926
-2.63888
-2.53917
-2.42847
-2.30508
-2.16711
-2.01286
-1.84036
-1.64778
-1.43304
-1.19424
-0.929291
-0.636246
-0.313143
0.0418136
0.430359
0.854049
1.31418
1.81181
2.3476
2.92179
3.53409
4.18361
4.86869
5.58698
6.33517
7.10913
7.90384
8.7135
9.53193
10.3523
11.1677
11.9714
12.757
13.5184
14.2507
14.9489
15.6097
16.2303
16.8088
17.3442
17.8361
18.285
18.6914
19.0569
19.3828
19.6711
19.9237
20.1426
20.3302
20.4888
20.6208
20.7285
20.814
20.8797
20.9276
20.9599
20.9782
20.9844
20.9801
20.9669
20.946
20.9188
20.8863
20.8497
20.8096
20.767
20.7224
20.6764
20.6294
20.5819
20.534
20.4859
20.4377
20.3894
20.3409
20.292
20.2426
20.1923
20.1408
20.0875
20.0318
19.973