/*--------------------------------*- C++ -*----------------------------------*\
| =========                 |                                                 |
| \\      /  F ield         | OpenFOAM: The Open Source CFD Toolbox           |
|  \\    /   O peration     | Version:  2412                                  |
|   \\  /    A nd           | Website:  www.openfoam.com                      |
|    \\/     M anipulation  |                                                 |
\*---------------------------------------------------------------------------*/
FoamFile
{
    version     2.0;
    format      ascii;
    arch        "LSB;label=32;scalar=64";
    class       surfaceScalarField;
    location    "100";
    object      phi;
}
// * * * * * * * * * * * * * * * * * * * * * * * * * * * * * * * * * * * * * //

dimensions      [0 3 -1 0 0 0 0];

oriented        oriented;

internalField   nonuniform List<scalar> 
24170
(
2.1271e-06
1.06131e-06
1.40024e-06
7.26855e-07
1.05899e-06
3.41255e-07
8.83219e-07
1.75763e-07
7.75518e-07
1.07699e-07
7.01307e-07
7.42056e-08
6.46998e-07
5.43067e-08
6.06735e-07
4.02573e-08
5.767e-07
3.00324e-08
5.54044e-07
2.26503e-08
5.36919e-07
1.7122e-08
5.24208e-07
1.27061e-08
5.1526e-07
8.94434e-09
5.09734e-07
5.52179e-09
5.07708e-07
2.02216e-09
5.09881e-07
-2.17676e-09
5.17785e-07
-7.90746e-09
-6.08668e-08
5.78646e-07
3.40072e-06
1.07784e-06
2.94896e-06
1.17862e-06
2.5015e-06
7.88718e-07
2.16061e-06
5.16645e-07
1.92395e-06
3.44366e-07
1.76089e-06
2.37263e-07
1.64299e-06
1.72204e-07
1.55389e-06
1.2935e-07
1.48526e-06
9.86577e-08
1.43199e-06
7.59124e-08
1.39057e-06
5.85326e-08
1.35866e-06
4.46149e-08
1.33474e-06
3.28577e-08
1.31797e-06
2.2285e-08
1.30811e-06
1.18713e-08
1.30635e-06
-4.20341e-10
1.31614e-06
-1.7709e-08
-6.91239e-08
1.32439e-06
3.87999e-06
8.60366e-07
3.84263e-06
1.21598e-06
3.63663e-06
9.94713e-07
3.37618e-06
7.77084e-07
3.12833e-06
5.92216e-07
2.92181e-06
4.43774e-07
2.7577e-06
3.36315e-07
2.62776e-06
2.59284e-07
2.52433e-06
2.02082e-07
2.44169e-06
1.58548e-07
2.37562e-06
1.24595e-07
2.3231e-06
9.71295e-08
2.28204e-06
7.39077e-08
2.25116e-06
5.31625e-08
2.22981e-06
3.32172e-08
2.21809e-06
1.1298e-08
2.21602e-06
-1.56453e-08
-6.11362e-08
2.20803e-06
4.11799e-06
6.67768e-07
4.26002e-06
1.07394e-06
4.27654e-06
9.78196e-07
4.20718e-06
8.46441e-07
4.08358e-06
7.15812e-07
3.94083e-06
5.86526e-07
3.80181e-06
4.75329e-07
3.67584e-06
3.85255e-07
3.56569e-06
3.1223e-07
3.47146e-06
2.52772e-07
3.39206e-06
2.03993e-07
3.32602e-06
1.63161e-07
3.272e-06
1.27928e-07
3.22892e-06
9.6235e-08
3.19601e-06
6.61207e-08
3.17237e-06
3.49335e-08
3.15611e-06
6.15668e-10
-4.30668e-08
3.13803e-06
4.35389e-06
5.21008e-07
4.51302e-06
9.14806e-07
4.60505e-06
8.86166e-07
4.65251e-06
7.98975e-07
4.65421e-06
7.14102e-07
4.61977e-06
6.20958e-07
4.56427e-06
5.30833e-07
4.49862e-06
4.50895e-07
4.42993e-06
3.80921e-07
4.36291e-06
3.1978e-07
4.30047e-06
2.66429e-07
4.24416e-06
2.19467e-07
4.19475e-06
1.77335e-07
4.15255e-06
1.38433e-07
4.11747e-06
1.01195e-07
4.08881e-06
6.35911e-08
4.06452e-06
2.48999e-08
-1.80814e-08
4.03954e-06
4.62664e-06
4.03459e-07
4.75878e-06
7.82663e-07
4.85274e-06
7.922e-07
4.92654e-06
7.25179e-07
4.9797e-06
6.60939e-07
5.01014e-06
5.90517e-07
5.02201e-06
5.18959e-07
5.01995e-06
4.52949e-07
5.0077e-06
3.9317e-07
4.98869e-06
3.38782e-07
4.9659e-06
2.89218e-07
4.94159e-06
2.43776e-07
4.91739e-06
2.01533e-07
4.89439e-06
1.61422e-07
4.87313e-06
1.22458e-07
4.85333e-06
8.33887e-08
4.83375e-06
4.44715e-08
4.24195e-09
4.81142e-06
4.92439e-06
3.11785e-07
5.03701e-06
6.70045e-07
5.1238e-06
7.05403e-07
5.19208e-06
6.56893e-07
5.24978e-06
6.03235e-07
5.29588e-06
5.44411e-07
5.33165e-06
4.83185e-07
5.35897e-06
4.25621e-07
5.37897e-06
3.73174e-07
5.39273e-06
3.25018e-07
5.4015e-06
2.80435e-07
5.40646e-06
2.38813e-07
5.40856e-06
1.99438e-07
5.40844e-06
1.61533e-07
5.40642e-06
1.24476e-07
5.40218e-06
8.76267e-08
5.39502e-06
5.16319e-08
1.62551e-08
5.383e-06
5.24709e-06
2.44274e-07
5.35212e-06
5.65016e-07
5.43567e-06
6.21854e-07
5.49882e-06
5.93742e-07
5.55196e-06
5.50091e-07
5.59667e-06
4.997e-07
5.63433e-06
4.45515e-07
5.66676e-06
3.93194e-07
5.69489e-06
3.45039e-07
5.71921e-06
3.00688e-07
5.74017e-06
2.59473e-07
5.75814e-06
2.20842e-07
5.77337e-06
1.84203e-07
5.78594e-06
1.48962e-07
5.79571e-06
1.14705e-07
5.80216e-06
8.11764e-08
5.80478e-06
4.90029e-08
1.86444e-08
5.80239e-06
5.60206e-06
1.93549e-07
5.69944e-06
4.67634e-07
5.78017e-06
5.41123e-07
5.84271e-06
5.31194e-07
5.89451e-06
4.98282e-07
5.93811e-06
4.56103e-07
5.97504e-06
4.08575e-07
6.00715e-06
3.6108e-07
6.0357e-06
3.16486e-07
6.06134e-06
2.75049e-07
6.08445e-06
2.36359e-07
6.10527e-06
2.00019e-07
6.12386e-06
1.6561e-07
6.1401e-06
1.32721e-07
6.1537e-06
1.01102e-07
6.16416e-06
7.07147e-08
6.1711e-06
4.20579e-08
1.57871e-08
6.17395e-06
5.98972e-06
1.53601e-07
6.07527e-06
3.82084e-07
6.15259e-06
4.63806e-07
6.21593e-06
4.67847e-07
6.26902e-06
4.45195e-07
6.3139e-06
4.11216e-07
6.35195e-06
3.70522e-07
6.38484e-06
3.28197e-07
6.41391e-06
2.87411e-07
6.43998e-06
2.48973e-07
6.46352e-06
2.12814e-07
6.48481e-06
1.78733e-07
6.50391e-06
1.46503e-07
6.52074e-06
1.15888e-07
6.53506e-06
8.67784e-08
6.54653e-06
5.92447e-08
6.55491e-06
3.36688e-08
1.06326e-08
6.56007e-06
6.4087e-06
1.2171e-07
6.48145e-06
3.0933e-07
6.55388e-06
3.91374e-07
6.617e-06
4.04724e-07
6.67161e-06
3.90583e-07
6.71873e-06
3.64088e-07
6.75915e-06
3.301e-07
6.79414e-06
2.93211e-07
6.82491e-06
2.56633e-07
6.85232e-06
2.21564e-07
6.87687e-06
1.88254e-07
6.8989e-06
1.56706e-07
6.91852e-06
1.26875e-07
6.93573e-06
9.86734e-08
6.9504e-06
7.21058e-08
6.96236e-06
4.72853e-08
6.97152e-06
2.45057e-08
4.19626e-09
6.97796e-06
5.76313e-06
9.94112e-08
5.81531e-06
2.57148e-07
5.87197e-06
3.34709e-07
5.92396e-06
3.52734e-07
5.97034e-06
3.442e-07
6.01141e-06
3.2302e-07
6.04736e-06
2.94142e-07
6.07883e-06
2.61739e-07
6.1066e-06
2.28864e-07
6.13128e-06
1.96877e-07
6.1533e-06
1.66228e-07
6.17293e-06
1.37073e-07
6.19032e-06
1.09488e-07
6.2055e-06
8.34913e-08
6.21845e-06
5.9151e-08
6.22913e-06
3.65997e-08
6.23757e-06
1.60642e-08
-2.12405e-09
6.24389e-06
7.0193e-06
7.82628e-08
7.07048e-06
2.05965e-07
7.12965e-06
2.75536e-07
7.18645e-06
2.95937e-07
7.23883e-06
2.91812e-07
7.28643e-06
2.75423e-07
7.32898e-06
2.51581e-07
7.36681e-06
2.2391e-07
7.40049e-06
1.95177e-07
7.43056e-06
1.66806e-07
7.4574e-06
1.39388e-07
7.48128e-06
1.13192e-07
7.50237e-06
8.83911e-08
7.52077e-06
6.5087e-08
7.53653e-06
4.33939e-08
7.54968e-06
2.34455e-08
7.56034e-06
5.40672e-09
-1.04778e-08
7.56869e-06
8.5505e-06
5.86129e-08
8.59952e-06
1.56942e-07
8.65986e-06
2.15188e-07
8.72046e-06
2.35337e-07
8.77813e-06
2.34138e-07
8.83183e-06
2.21716e-07
8.88089e-06
2.02518e-07
8.92525e-06
1.79549e-07
8.96523e-06
1.55184e-07
9.00123e-06
1.30812e-07
9.03352e-06
1.07094e-07
9.06234e-06
8.43693e-08
9.08786e-06
6.2865e-08
9.11021e-06
4.27327e-08
9.1295e-06
2.41022e-08
9.14585e-06
7.096e-09
9.15943e-06
-8.18155e-09
-2.15495e-08
9.1705e-06
1.04172e-05
4.06609e-08
1.04634e-05
1.10681e-07
1.05239e-05
1.54751e-07
1.05875e-05
1.71738e-07
1.06499e-05
1.71729e-07
1.07093e-05
1.62269e-07
1.07647e-05
1.47139e-07
1.08155e-05
1.28698e-07
1.08619e-05
1.08819e-07
1.0904e-05
8.8733e-08
1.09419e-05
6.90983e-08
1.0976e-05
5.02777e-08
1.10064e-05
3.25072e-08
1.10332e-05
1.59551e-08
1.10565e-05
7.43116e-10
1.10766e-05
-1.303e-08
1.10938e-05
-2.53102e-08
-3.5963e-08
1.11082e-05
1.26932e-05
2.426e-08
1.27369e-05
6.70079e-08
1.27969e-05
9.47028e-08
1.28631e-05
1.05526e-07
1.29301e-05
1.04694e-07
1.29954e-05
9.70144e-08
1.30573e-05
8.52513e-08
1.31149e-05
7.10627e-08
1.3168e-05
5.57463e-08
1.32165e-05
4.0229e-08
1.32605e-05
2.50653e-08
1.33002e-05
1.05726e-08
1.33357e-05
-3.04012e-09
1.33673e-05
-1.56293e-08
1.33952e-05
-2.70942e-08
1.34195e-05
-3.73675e-08
1.34406e-05
-4.64266e-08
-5.41768e-08
1.34588e-05
1.54686e-05
8.82089e-09
1.5511e-05
2.46411e-08
1.55716e-05
3.41054e-08
1.56411e-05
3.59456e-08
1.57136e-05
3.21896e-08
1.57856e-05
2.50414e-08
1.58549e-05
1.59197e-08
1.59203e-05
5.68081e-09
1.59811e-05
-5.01111e-09
1.60369e-05
-1.56525e-08
1.60879e-05
-2.59187e-08
1.61341e-05
-3.56129e-08
1.61757e-05
-4.4605e-08
1.62128e-05
-5.2804e-08
1.62459e-05
-6.01489e-08
1.62751e-05
-6.66017e-08
1.63008e-05
-7.2163e-08
-7.67641e-08
1.63234e-05
1.88533e-05
-6.89252e-09
1.88977e-05
-1.97013e-08
1.89626e-05
-3.08572e-08
1.90391e-05
-4.05344e-08
1.91203e-05
-4.89777e-08
1.92018e-05
-5.6526e-08
1.92812e-05
-6.3408e-08
1.93566e-05
-6.97253e-08
1.94271e-05
-7.55155e-08
1.94922e-05
-8.08014e-08
1.95519e-05
-8.5595e-08
1.96062e-05
-8.9895e-08
1.96552e-05
-9.36899e-08
1.96994e-05
-9.69653e-08
1.97389e-05
-9.97097e-08
1.97743e-05
-1.01915e-07
1.98057e-05
-1.03592e-07
-1.04687e-07
1.98336e-05
2.29823e-05
-2.59043e-08
2.30366e-05
-7.39574e-08
2.3116e-05
-1.1026e-07
2.32091e-05
-1.33689e-07
2.33076e-05
-1.47454e-07
2.34063e-05
-1.55181e-07
2.3502e-05
-1.59145e-07
2.35928e-05
-1.60579e-07
2.36777e-05
-1.60352e-07
2.3756e-05
-1.59134e-07
2.38277e-05
-1.57352e-07
2.38931e-05
-1.5524e-07
2.39523e-05
-1.52922e-07
2.40058e-05
-1.50465e-07
2.4054e-05
-1.479e-07
2.40973e-05
-1.45238e-07
2.41362e-05
-1.42488e-07
-1.39599e-07
2.41711e-05
1.68288e-05
-4.3999e-08
1.68785e-05
-1.23614e-07
1.69483e-05
-1.80116e-07
1.70268e-05
-2.12173e-07
1.7107e-05
-2.27617e-07
1.71854e-05
-2.33606e-07
1.72601e-05
-2.33894e-07
1.733e-05
-2.30454e-07
1.73944e-05
-2.24811e-07
1.74534e-05
-2.18106e-07
1.75071e-05
-2.1101e-07
1.75557e-05
-2.03867e-07
1.75996e-05
-1.96861e-07
1.76392e-05
-1.90089e-07
1.76749e-05
-1.83587e-07
1.7707e-05
-1.77355e-07
1.77359e-05
-1.7138e-07
-1.65597e-07
1.77619e-05
1.46565e-05
-6.58884e-08
1.47149e-05
-1.82079e-07
1.47927e-05
-2.57902e-07
1.48751e-05
-2.94583e-07
1.49557e-05
-3.08189e-07
1.50322e-05
-3.1014e-07
1.51034e-05
-3.05094e-07
1.51686e-05
-2.95597e-07
1.52276e-05
-2.83844e-07
1.52808e-05
-2.71363e-07
1.53288e-05
-2.58925e-07
1.53718e-05
-2.46899e-07
1.54104e-05
-2.35468e-07
1.5445e-05
-2.24719e-07
1.54761e-05
-2.14657e-07
1.5504e-05
-2.05247e-07
1.5529e-05
-1.96434e-07
-1.88125e-07
1.55515e-05
1.27684e-05
-9.41888e-08
1.28415e-05
-2.55117e-07
1.29309e-05
-3.47315e-07
1.30188e-05
-3.82541e-07
1.31006e-05
-3.89912e-07
1.31755e-05
-3.85069e-07
1.3243e-05
-3.7262e-07
1.33031e-05
-3.55661e-07
1.33563e-05
-3.37071e-07
1.34035e-05
-3.18561e-07
1.34454e-05
-3.00828e-07
1.34826e-05
-2.84154e-07
1.35158e-05
-2.68661e-07
1.35455e-05
-2.54364e-07
1.3572e-05
-2.41196e-07
1.35958e-05
-2.29057e-07
1.36172e-05
-2.17838e-07
-2.0739e-07
1.36365e-05
1.11282e-05
-1.31497e-07
1.1222e-05
-3.48881e-07
1.1324e-05
-4.49293e-07
1.14158e-05
-4.74356e-07
1.14965e-05
-4.7067e-07
1.15677e-05
-4.56202e-07
1.16296e-05
-4.34583e-07
1.16834e-05
-4.09451e-07
1.17304e-05
-3.84088e-07
1.17718e-05
-3.59965e-07
1.18085e-05
-3.37478e-07
1.18411e-05
-3.16746e-07
1.18702e-05
-2.97782e-07
1.18963e-05
-2.80497e-07
1.19198e-05
-2.64734e-07
1.19411e-05
-2.50325e-07
1.19604e-05
-2.37099e-07
-2.24869e-07
1.19778e-05
9.70626e-06
-1.82548e-07
9.82407e-06
-4.66691e-07
9.9351e-06
-5.60332e-07
1.00264e-05
-5.65706e-07
1.01043e-05
-5.48506e-07
1.01716e-05
-5.23491e-07
1.02294e-05
-4.92462e-07
1.02797e-05
-4.59701e-07
1.0324e-05
-4.28374e-07
1.03633e-05
-3.99293e-07
1.03983e-05
-3.72503e-07
1.04296e-05
-3.47997e-07
1.04575e-05
-3.25704e-07
1.04824e-05
-3.05451e-07
1.05047e-05
-2.87024e-07
1.05246e-05
-2.70239e-07
1.05424e-05
-2.54859e-07
-2.40837e-07
1.05583e-05
8.48054e-06
-2.57736e-07
8.61965e-06
-6.05807e-07
8.7359e-06
-6.76597e-07
8.82805e-06
-6.5787e-07
8.90864e-06
-6.29103e-07
8.97894e-06
-5.93789e-07
9.03936e-06
-5.52888e-07
9.09147e-06
-5.11824e-07
9.13624e-06
-4.73148e-07
9.17409e-06
-4.37141e-07
9.20546e-06
-4.03878e-07
9.23092e-06
-3.73467e-07
9.25107e-06
-3.45849e-07
9.26645e-06
-3.20843e-07
9.27763e-06
-2.98201e-07
9.28513e-06
-2.77749e-07
9.28944e-06
-2.59168e-07
-2.42668e-07
9.29127e-06
7.42352e-06
-3.63978e-07
7.58965e-06
-7.71941e-07
7.71874e-06
-8.057e-07
7.82498e-06
-7.64123e-07
7.91465e-06
-7.18779e-07
7.98325e-06
-6.624e-07
8.03125e-06
-6.00891e-07
8.06129e-06
-5.41867e-07
8.0756e-06
-4.87461e-07
8.07646e-06
-4.3801e-07
8.06634e-06
-3.93759e-07
8.04754e-06
-3.54677e-07
8.02205e-06
-3.20365e-07
7.99151e-06
-2.90299e-07
7.95724e-06
-2.63937e-07
7.92031e-06
-2.40824e-07
7.88158e-06
-2.20438e-07
-2.02804e-07
7.84171e-06
6.52279e-06
-5.16702e-07
6.72829e-06
-9.77454e-07
6.8703e-06
-9.47722e-07
6.95645e-06
-8.50297e-07
6.98489e-06
-7.47225e-07
6.96293e-06
-6.40438e-07
6.90593e-06
-5.43904e-07
6.82685e-06
-4.6279e-07
6.73458e-06
-3.95201e-07
6.63552e-06
-3.3895e-07
6.53419e-06
-2.92436e-07
6.43361e-06
-2.54096e-07
6.33564e-06
-2.22407e-07
6.24141e-06
-1.96068e-07
6.1515e-06
-1.74038e-07
6.06616e-06
-1.55481e-07
5.98546e-06
-1.39745e-07
-1.2631e-07
5.90896e-06
5.80581e-06
-7.7705e-07
5.95921e-06
-1.13087e-06
5.94668e-06
-9.35202e-07
5.81469e-06
-7.18328e-07
5.61447e-06
-5.47017e-07
5.39154e-06
-4.1752e-07
5.17319e-06
-3.25556e-07
4.97074e-06
-2.60355e-07
4.78766e-06
-2.12121e-07
4.62413e-06
-1.75432e-07
4.47889e-06
-1.47198e-07
4.34999e-06
-1.25206e-07
4.23538e-06
-1.07804e-07
4.13313e-06
-9.38244e-08
4.04154e-06
-8.24508e-08
3.95909e-06
-7.30354e-08
3.88459e-06
-6.52453e-08
-5.84187e-08
3.81669e-06
5.04153e-06
-9.90974e-07
4.75293e-06
-8.42278e-07
4.31575e-06
-4.98042e-07
3.88616e-06
-2.88749e-07
3.5225e-06
-1.83369e-07
3.23514e-06
-1.30168e-07
3.01056e-06
-1.00974e-07
2.83167e-06
-8.14783e-08
2.68602e-06
-6.64696e-08
2.56528e-06
-5.47065e-08
2.46366e-06
-4.55754e-08
2.37691e-06
-3.84694e-08
2.30199e-06
-3.28833e-08
2.2366e-06
-2.84364e-08
2.179e-06
-2.48614e-08
2.12787e-06
-2.1903e-08
2.08215e-06
-1.95314e-08
-1.73089e-08
2.04103e-06
3.2117e-06
2.36942e-06
1.87138e-06
1.58263e-06
1.39926e-06
1.26909e-06
1.16812e-06
1.08664e-06
1.02017e-06
9.65464e-07
9.19888e-07
8.81419e-07
8.48535e-07
8.20098e-07
7.95237e-07
7.73333e-07
7.53801e-07
7.36492e-07
1.34934e-09
-1.37143e-09
4.75578e-09
-3.44761e-09
9.28085e-09
-4.56918e-09
1.41592e-08
-4.9167e-09
1.87477e-08
-4.63185e-09
2.25924e-08
-3.88194e-09
2.5369e-08
-2.82181e-09
2.69227e-08
-1.5911e-09
2.71677e-08
-2.91982e-10
2.61344e-08
9.9609e-10
2.38581e-08
2.22824e-09
2.04481e-08
3.37337e-09
1.59737e-08
4.42593e-09
1.05577e-08
5.3799e-09
4.26449e-09
6.24387e-09
-2.78852e-09
7.01615e-09
-1.05509e-08
7.7105e-09
-1.89183e-08
8.32884e-09
-2.7857e-08
8.88532e-09
-3.72873e-08
9.38881e-09
-4.72072e-08
9.86242e-09
-5.75672e-08
1.03151e-08
-6.83945e-08
1.07658e-08
-7.96625e-08
1.12177e-08
-9.1414e-08
1.16837e-08
-1.03634e-07
1.21615e-08
-1.1637e-07
1.26598e-08
-1.29609e-07
1.31733e-08
-1.43399e-07
1.3709e-08
-1.57727e-07
1.42592e-08
-1.72643e-07
1.48295e-08
-1.88126e-07
1.54119e-08
-2.04222e-07
1.60107e-08
-2.20911e-07
1.66166e-08
-2.38232e-07
1.72334e-08
-2.56157e-07
1.78516e-08
-2.74719e-07
1.84749e-08
-2.93883e-07
1.9094e-08
-3.13679e-07
1.9712e-08
-3.34065e-07
2.03203e-08
-3.55066e-07
2.0922e-08
-3.76637e-07
2.15087e-08
-3.98795e-07
2.20832e-08
-4.21495e-07
2.26378e-08
-4.44745e-07
2.31744e-08
-4.68497e-07
2.36868e-08
-4.92751e-07
2.41765e-08
-5.17459e-07
2.46385e-08
-5.42613e-07
2.50736e-08
-5.68166e-07
2.54785e-08
-5.94106e-07
2.58532e-08
-6.20384e-07
2.61964e-08
-6.46985e-07
2.65072e-08
-6.73866e-07
2.67852e-08
-7.01004e-07
2.70296e-08
-7.28357e-07
2.72439e-08
-7.55902e-07
2.74266e-08
-7.83603e-07
2.75819e-08
-8.11437e-07
2.77085e-08
-8.39376e-07
2.78132e-08
-8.67399e-07
2.78939e-08
-8.95488e-07
2.79582e-08
-9.23625e-07
2.80041e-08
-9.51802e-07
2.80422e-08
-9.80006e-07
2.80688e-08
-1.00824e-06
2.80962e-08
-1.03649e-06
2.81195e-08
-1.06478e-06
2.81524e-08
-1.0931e-06
2.81899e-08
-1.12148e-06
2.82481e-08
-1.14992e-06
2.83221e-08
-1.17847e-06
2.84308e-08
-1.20714e-06
2.85651e-08
-1.23601e-06
2.8743e-08
-1.26507e-06
2.89551e-08
-1.29442e-06
2.92182e-08
-1.32407e-06
2.95163e-08
-1.35407e-06
2.98698e-08
-1.38445e-06
3.02637e-08
-1.41531e-06
3.07153e-08
-1.44663e-06
3.12048e-08
-1.47851e-06
3.17526e-08
-1.51095e-06
3.2334e-08
-1.54403e-06
3.29616e-08
-1.57774e-06
3.36062e-08
-1.61213e-06
3.42791e-08
-1.64714e-06
3.49421e-08
-1.68271e-06
3.55787e-08
-1.71874e-06
3.61373e-08
-1.75511e-06
3.6655e-08
-1.79195e-06
3.70701e-08
-1.8291e-06
3.73565e-08
-1.86641e-06
3.74601e-08
-1.90361e-06
3.73522e-08
-1.94048e-06
3.69955e-08
-1.97671e-06
3.63593e-08
-2.01203e-06
3.54048e-08
-2.04605e-06
3.4098e-08
-2.07842e-06
3.2399e-08
-2.10871e-06
3.02615e-08
-2.13647e-06
2.76765e-08
-2.1613e-06
2.46187e-08
-2.18259e-06
2.10147e-08
-2.19978e-06
1.67403e-08
-2.21195e-06
1.17643e-08
-2.21857e-06
6.11799e-09
-2.21921e-06
2.88099e-10
-2.21389e-06
-5.70692e-09
-2.20228e-06
-1.18104e-08
-2.18423e-06
-1.82947e-08
-2.15921e-06
-2.50598e-08
-2.1271e-06
-3.21932e-08
-2.08747e-06
-3.95337e-08
-2.04026e-06
-4.71385e-08
-1.9852e-06
-5.48254e-08
-1.92235e-06
-6.26269e-08
-1.8516e-06
-7.03883e-08
-1.77315e-06
-7.80762e-08
-1.68711e-06
-8.55533e-08
-1.59382e-06
-9.27974e-08
-1.49362e-06
-9.96766e-08
-1.38701e-06
-1.06107e-07
-1.27454e-06
-1.11967e-07
-1.15683e-06
-1.17158e-07
-1.03467e-06
-1.21589e-07
-9.08874e-07
-1.25168e-07
-7.80417e-07
-1.27865e-07
-6.5018e-07
-1.29592e-07
-5.19242e-07
-1.30386e-07
-3.88556e-07
-1.30089e-07
-2.59385e-07
-1.28713e-07
-1.31944e-07
-1.26958e-07
-7.28003e-09
-1.24353e-07
1.13801e-07
-1.20759e-07
2.29911e-07
-1.15973e-07
3.40536e-07
-1.1049e-07
4.45161e-07
-1.04668e-07
5.43589e-07
-9.85237e-08
6.35494e-07
-9.21901e-08
7.20793e-07
-8.56742e-08
7.99414e-07
-7.90579e-08
8.71351e-07
-7.23688e-08
9.36641e-07
-6.5679e-08
9.953e-07
-5.90218e-08
1.04744e-06
-5.24724e-08
1.09321e-06
-4.60911e-08
1.13281e-06
-3.98972e-08
1.16648e-06
-3.39557e-08
1.19454e-06
-2.83284e-08
1.2173e-06
-2.3022e-08
1.2351e-06
-1.80506e-08
1.24827e-06
-1.34157e-08
1.25714e-06
-9.12179e-09
1.26201e-06
-5.1121e-09
1.26317e-06
-1.40483e-09
1.26105e-06
1.88482e-09
1.2561e-06
4.71789e-09
1.24871e-06
7.15223e-09
1.23926e-06
9.22985e-09
1.22806e-06
1.09826e-08
1.21541e-06
1.24342e-08
1.20159e-06
1.36144e-08
1.18684e-06
1.45477e-08
1.17138e-06
1.52648e-08
1.1554e-06
1.57903e-08
1.13906e-06
1.6156e-08
1.12249e-06
1.6392e-08
1.10579e-06
1.6534e-08
1.08901e-06
1.66197e-08
1.07216e-06
1.66958e-08
1.0552e-06
1.6816e-08
1.03801e-06
1.70496e-08
1.02038e-06
1.74904e-08
1.00199e-06
1.827e-08
9.82311e-07
1.95644e-08
9.6044e-07
2.17629e-08
9.35282e-07
2.50608e-08
9.03244e-07
3.1947e-08
8.63069e-07
4.0095e-08
7.28685e-08
7.90129e-07
2.51389e-09
-3.933e-09
7.67219e-09
-8.69042e-09
1.35076e-08
-1.04933e-08
1.87621e-08
-1.02388e-08
2.26314e-08
-8.5795e-09
2.4726e-08
-6.03439e-09
2.48105e-08
-2.98169e-09
2.28579e-08
3.07942e-10
1.88483e-08
3.64251e-09
1.29e-08
6.89368e-09
5.07252e-09
9.98081e-09
-4.46275e-09
1.28607e-08
-1.56255e-08
1.55151e-08
-2.82374e-08
1.79464e-08
-4.22324e-08
2.01662e-08
-5.74571e-08
2.21958e-08
-7.38788e-08
2.40581e-08
-9.13742e-08
2.57771e-08
-1.09939e-07
2.73736e-08
-1.29472e-07
2.88721e-08
-1.49987e-07
3.02961e-08
-1.71398e-07
3.16709e-08
-1.93735e-07
3.3016e-08
-2.16928e-07
3.43493e-08
-2.41023e-07
3.5682e-08
-2.65958e-07
3.70244e-08
-2.91784e-07
3.83802e-08
-3.18443e-07
3.97532e-08
-3.45987e-07
4.11417e-08
-3.74356e-07
4.25454e-08
-4.036e-07
4.39599e-08
-4.33654e-07
4.53826e-08
-4.64562e-07
4.68059e-08
-4.96252e-07
4.82251e-08
-5.28763e-07
4.96313e-08
-5.62013e-07
5.10201e-08
-5.96031e-07
5.23826e-08
-6.30729e-07
5.37146e-08
-6.6613e-07
5.50078e-08
-7.02141e-07
5.6259e-08
-7.38778e-07
5.74604e-08
-7.75947e-07
5.86096e-08
-8.13658e-07
5.96995e-08
-8.51817e-07
6.07283e-08
-8.90427e-07
6.169e-08
-9.29396e-07
6.2584e-08
-9.68722e-07
6.34055e-08
-1.00832e-06
6.41555e-08
-1.04817e-06
6.48299e-08
-1.08821e-06
6.54311e-08
-1.12842e-06
6.59566e-08
-1.16872e-06
6.64098e-08
-1.20912e-06
6.67911e-08
-1.24955e-06
6.71068e-08
-1.29e-06
6.73569e-08
-1.33043e-06
6.75478e-08
-1.37082e-06
6.76816e-08
-1.41114e-06
6.77654e-08
-1.45137e-06
6.7803e-08
-1.4915e-06
6.78024e-08
-1.53152e-06
6.77681e-08
-1.57142e-06
6.77094e-08
-1.61119e-06
6.76319e-08
-1.65084e-06
6.7545e-08
-1.69037e-06
6.74551e-08
-1.7298e-06
6.73716e-08
-1.76913e-06
6.73013e-08
-1.80838e-06
6.72534e-08
-1.84756e-06
6.72354e-08
-1.88671e-06
6.72539e-08
-1.92583e-06
6.7315e-08
-1.96496e-06
6.74239e-08
-2.0041e-06
6.75868e-08
-2.04329e-06
6.78044e-08
-2.08253e-06
6.80794e-08
-2.12187e-06
6.84076e-08
-2.16127e-06
6.87924e-08
-2.20078e-06
6.92245e-08
-2.24034e-06
6.97016e-08
-2.27998e-06
7.0207e-08
-2.31963e-06
7.07354e-08
-2.35927e-06
7.12609e-08
-2.39881e-06
7.17711e-08
-2.43823e-06
7.2232e-08
-2.47735e-06
7.2625e-08
-2.5161e-06
7.29067e-08
-2.55427e-06
7.30486e-08
-2.59171e-06
7.29965e-08
-2.62812e-06
7.27355e-08
-2.66339e-06
7.2188e-08
-2.69736e-06
7.13036e-08
-2.72982e-06
7.0001e-08
-2.76042e-06
6.82131e-08
-2.78884e-06
6.5909e-08
-2.81475e-06
6.30227e-08
-2.8378e-06
5.95197e-08
-2.85765e-06
5.53311e-08
-2.87393e-06
5.0425e-08
-2.88629e-06
4.47441e-08
-2.89434e-06
3.82628e-08
-2.89781e-06
3.0981e-08
-2.8962e-06
2.27685e-08
-2.88921e-06
1.36078e-08
-2.87665e-06
3.71475e-09
-2.85851e-06
-6.92997e-09
-2.83453e-06
-1.83311e-08
-2.80437e-06
-3.03432e-08
-2.76741e-06
-4.30007e-08
-2.72325e-06
-5.62638e-08
-2.67161e-06
-7.00964e-08
-2.61233e-06
-8.44637e-08
-2.54522e-06
-9.93112e-08
-2.47016e-06
-1.14543e-07
-2.38707e-06
-1.30076e-07
-2.29593e-06
-1.45754e-07
-2.19679e-06
-1.61474e-07
-2.08978e-06
-1.77038e-07
-1.97507e-06
-1.92326e-07
-1.85294e-06
-2.07169e-07
-1.72375e-06
-2.21434e-07
-1.58795e-06
-2.34933e-07
-1.44603e-06
-2.47493e-07
-1.29853e-06
-2.58917e-07
-1.14607e-06
-2.69038e-07
-9.89348e-07
-2.77674e-07
-8.29193e-07
-2.84677e-07
-6.66493e-07
-2.8989e-07
-5.02249e-07
-2.9319e-07
-3.37443e-07
-2.94546e-07
-1.72789e-07
-2.94163e-07
-8.69037e-09
-2.92277e-07
1.54052e-07
-2.89266e-07
3.14629e-07
-2.84562e-07
4.71741e-07
-2.77609e-07
6.24849e-07
-2.68898e-07
7.73354e-07
-2.58922e-07
9.16668e-07
-2.48007e-07
1.05428e-06
-2.36319e-07
1.18576e-06
-2.23991e-07
1.31074e-06
-2.11121e-07
1.42901e-06
-1.97822e-07
1.54038e-06
-1.84224e-07
1.64467e-06
-1.70417e-07
1.74174e-06
-1.56513e-07
1.83145e-06
-1.4257e-07
1.91371e-06
-1.28736e-07
1.98852e-06
-1.15065e-07
2.05588e-06
-1.01679e-07
2.11589e-06
-8.86751e-08
2.16867e-06
-7.61432e-08
2.21443e-06
-6.41316e-08
2.25338e-06
-5.27001e-08
2.28578e-06
-4.18442e-08
2.31196e-06
-3.16272e-08
2.33231e-06
-2.20705e-08
2.34708e-06
-1.32188e-08
2.35656e-06
-5.0752e-09
2.3611e-06
2.29081e-09
2.36115e-06
8.87033e-09
2.35715e-06
1.46704e-08
2.34955e-06
1.97402e-08
2.33876e-06
2.41054e-08
2.3252e-06
2.78239e-08
2.30926e-06
3.09305e-08
2.29129e-06
3.34912e-08
2.27162e-06
3.55545e-08
2.25056e-06
3.72004e-08
2.22835e-06
3.84962e-08
2.2052e-06
3.95431e-08
2.18122e-06
4.04385e-08
2.1565e-06
4.1322e-08
2.131e-06
4.23482e-08
2.10455e-06
4.37405e-08
2.07685e-06
4.57868e-08
2.0473e-06
4.89482e-08
2.01502e-06
5.38766e-08
1.97831e-06
6.16355e-08
1.9352e-06
7.49209e-08
1.87911e-06
9.60678e-08
1.39063e-07
1.81281e-06
2.314e-09
-6.2922e-09
6.15306e-09
-1.2609e-08
9.51886e-09
-1.39354e-08
1.12517e-08
-1.2027e-08
1.09073e-08
-8.29349e-09
8.44233e-09
-3.61196e-09
3.89275e-09
1.51738e-09
-2.62995e-09
6.79366e-09
-1.10603e-08
1.20254e-08
-2.12899e-08
1.70896e-08
-3.32637e-08
2.19095e-08
-4.6877e-08
2.64427e-08
-6.20781e-08
3.0673e-08
-7.87657e-08
3.46043e-08
-9.68966e-08
3.82546e-08
-1.16382e-07
4.16514e-08
-1.37192e-07
4.48253e-08
-1.59253e-07
4.78067e-08
-1.82547e-07
5.06229e-08
-2.07008e-07
5.33004e-08
-2.32624e-07
5.58651e-08
-2.59332e-07
5.8342e-08
-2.87122e-07
6.07539e-08
-3.15934e-07
6.31199e-08
-3.45764e-07
6.54546e-08
-3.76556e-07
6.77686e-08
-4.08307e-07
7.00681e-08
-4.40962e-07
7.23555e-08
-4.74517e-07
7.46301e-08
-5.08915e-07
7.6889e-08
-5.44148e-07
7.9127e-08
-5.80157e-07
8.13379e-08
-6.16929e-07
8.35129e-08
-6.544e-07
8.56431e-08
-6.92551e-07
8.77191e-08
-7.31314e-07
8.9732e-08
-7.70666e-07
9.16727e-08
-8.10534e-07
9.35334e-08
-8.50891e-07
9.5306e-08
-8.91662e-07
9.69842e-08
-9.32819e-07
9.85615e-08
-9.74287e-07
1.00033e-07
-1.01604e-06
1.01395e-07
-1.058e-06
1.02643e-07
-1.10013e-06
1.03774e-07
-1.14239e-06
1.04788e-07
-1.18472e-06
1.05683e-07
-1.22707e-06
1.0646e-07
-1.26942e-06
1.07121e-07
-1.31172e-06
1.07668e-07
-1.35393e-06
1.08104e-07
-1.39601e-06
1.08435e-07
-1.43796e-06
1.08665e-07
-1.47972e-06
1.08801e-07
-1.52129e-06
1.08848e-07
-1.56264e-06
1.08814e-07
-1.60375e-06
1.08707e-07
-1.6446e-06
1.08537e-07
-1.6852e-06
1.08311e-07
-1.72552e-06
1.0804e-07
-1.76558e-06
1.07733e-07
-1.80536e-06
1.07401e-07
-1.84487e-06
1.07054e-07
-1.88412e-06
1.06702e-07
-1.92311e-06
1.06356e-07
-1.96186e-06
1.06025e-07
-2.00037e-06
1.0572e-07
-2.03866e-06
1.05448e-07
-2.07673e-06
1.05218e-07
-2.1146e-06
1.05036e-07
-2.15227e-06
1.04905e-07
-2.18976e-06
1.04829e-07
-2.22706e-06
1.0481e-07
-2.26418e-06
1.04844e-07
-2.30111e-06
1.04928e-07
-2.33784e-06
1.05055e-07
-2.37435e-06
1.05215e-07
-2.41061e-06
1.05395e-07
-2.44656e-06
1.05577e-07
-2.48218e-06
1.05738e-07
-2.51738e-06
1.05854e-07
-2.55209e-06
1.05894e-07
-2.58622e-06
1.05822e-07
-2.61966e-06
1.05597e-07
-2.65229e-06
1.05176e-07
-2.68396e-06
1.04504e-07
-2.7145e-06
1.03533e-07
-2.74371e-06
1.02209e-07
-2.77136e-06
1.00472e-07
-2.79726e-06
9.82698e-08
-2.82129e-06
9.54903e-08
-2.84325e-06
9.20496e-08
-2.86284e-06
8.78915e-08
-2.87982e-06
8.29407e-08
-2.89389e-06
7.71562e-08
-2.90481e-06
7.04635e-08
-2.91227e-06
6.2822e-08
-2.91602e-06
5.41657e-08
-2.91577e-06
4.44631e-08
-2.91126e-06
3.36696e-08
-2.90219e-06
2.1758e-08
-2.88833e-06
8.68877e-09
-2.86954e-06
-5.50986e-09
-2.84542e-06
-2.07608e-08
-2.81565e-06
-3.709e-08
-2.77985e-06
-5.44636e-08
-2.73767e-06
-7.28457e-08
-2.68872e-06
-9.21749e-08
-2.63278e-06
-1.12403e-07
-2.56954e-06
-1.33442e-07
-2.49885e-06
-1.55239e-07
-2.42049e-06
-1.77666e-07
-2.33437e-06
-2.0063e-07
-2.24038e-06
-2.23961e-07
-2.13852e-06
-2.47477e-07
-2.02882e-06
-2.70961e-07
-1.91142e-06
-2.94198e-07
-1.78646e-06
-3.16981e-07
-1.65423e-06
-3.39057e-07
-1.51511e-06
-3.60197e-07
-1.36955e-06
-3.80147e-07
-1.21807e-06
-3.98639e-07
-1.06123e-06
-4.15403e-07
-8.99712e-07
-4.30188e-07
-7.34233e-07
-4.42752e-07
-5.65597e-07
-4.52903e-07
-3.94619e-07
-4.60441e-07
-2.22073e-07
-4.65329e-07
-4.86006e-08
-4.67618e-07
1.24851e-07
-4.67266e-07
2.97152e-07
-4.64254e-07
4.67308e-07
-4.59165e-07
6.35074e-07
-4.52105e-07
7.99988e-07
-4.4237e-07
9.61416e-07
-4.30215e-07
1.11864e-06
-4.16109e-07
1.27104e-06
-4.00439e-07
1.4181e-06
-3.83497e-07
1.55938e-06
-3.65493e-07
1.69458e-06
-3.46597e-07
1.82346e-06
-3.26996e-07
1.94583e-06
-3.06868e-07
2.06155e-06
-2.86379e-07
2.17049e-06
-2.65671e-07
2.27254e-06
-2.4483e-07
2.3676e-06
-2.23986e-07
2.45561e-06
-2.03262e-07
2.53657e-06
-1.82809e-07
2.61049e-06
-1.62773e-07
2.67746e-06
-1.43273e-07
2.73757e-06
-1.24408e-07
2.79096e-06
-1.06254e-07
2.8378e-06
-8.88557e-08
2.8783e-06
-7.22936e-08
2.91269e-06
-5.66301e-08
2.94121e-06
-4.19118e-08
2.96413e-06
-2.8163e-08
2.98167e-06
-1.54175e-08
2.99408e-06
-3.71012e-09
3.00167e-06
6.9136e-09
3.00478e-06
1.64657e-08
3.00375e-06
2.49749e-08
2.99893e-06
3.24888e-08
2.99066e-06
3.90473e-08
2.97928e-06
4.47151e-08
2.96514e-06
4.95551e-08
2.94853e-06
5.36603e-08
2.92976e-06
5.71262e-08
2.90909e-06
6.00865e-08
2.88671e-06
6.26868e-08
2.86278e-06
6.5126e-08
2.83738e-06
6.76392e-08
2.81045e-06
7.05543e-08
2.78183e-06
7.43002e-08
2.75113e-06
7.95533e-08
2.71768e-06
8.72413e-08
2.68031e-06
9.89224e-08
2.63795e-06
1.17203e-07
2.58746e-06
1.46488e-07
1.93842e-07
2.53262e-06
1.19651e-09
-7.53166e-09
2.12083e-09
-1.36061e-08
1.40543e-09
-1.32865e-08
-1.48281e-09
-9.18514e-09
-6.51779e-09
-3.30458e-09
-1.34985e-08
3.33623e-09
-2.22715e-08
1.02526e-08
-3.26946e-08
1.71899e-08
-4.47007e-08
2.39974e-08
-5.82143e-08
3.05791e-08
-7.32111e-08
3.68742e-08
-8.96395e-08
4.28487e-08
-1.07487e-07
4.84897e-08
-1.26705e-07
5.38013e-08
-1.47281e-07
5.88002e-08
-1.69163e-07
6.35118e-08
-1.92334e-07
6.79653e-08
-2.1674e-07
7.21905e-08
-2.42365e-07
7.62153e-08
-2.69154e-07
8.0066e-08
-2.9709e-07
8.37668e-08
-3.26116e-07
8.7341e-08
-3.56208e-07
9.08092e-08
-3.87308e-07
9.41889e-08
-4.19389e-07
9.74936e-08
-4.52389e-07
1.00733e-07
-4.86279e-07
1.03912e-07
-5.20995e-07
1.07032e-07
-5.56506e-07
1.10093e-07
-5.92745e-07
1.13088e-07
-6.29677e-07
1.16012e-07
-6.67235e-07
1.18856e-07
-7.05379e-07
1.21612e-07
-7.44043e-07
1.2427e-07
-7.8319e-07
1.26822e-07
-8.22751e-07
1.29257e-07
-8.62687e-07
1.31567e-07
-9.0293e-07
1.33743e-07
-9.43442e-07
1.35777e-07
-9.84154e-07
1.37664e-07
-1.02503e-06
1.39398e-07
-1.066e-06
1.40976e-07
-1.10704e-06
1.42394e-07
-1.14808e-06
1.43651e-07
-1.18909e-06
1.44746e-07
-1.23002e-06
1.45682e-07
-1.27084e-06
1.46459e-07
-1.31149e-06
1.47082e-07
-1.35197e-06
1.47554e-07
-1.39222e-06
1.47882e-07
-1.43223e-06
1.48071e-07
-1.47197e-06
1.48129e-07
-1.51142e-06
1.48064e-07
-1.55056e-06
1.47885e-07
-1.58937e-06
1.476e-07
-1.62783e-06
1.47221e-07
-1.66594e-06
1.46757e-07
-1.70368e-06
1.4622e-07
-1.74106e-06
1.45623e-07
-1.77806e-06
1.44976e-07
-1.81468e-06
1.44292e-07
-1.85092e-06
1.43583e-07
-1.88679e-06
1.42861e-07
-1.92229e-06
1.42139e-07
-1.95743e-06
1.41428e-07
-1.99221e-06
1.40737e-07
-2.02663e-06
1.40078e-07
-2.06071e-06
1.39458e-07
-2.09444e-06
1.38884e-07
-2.12783e-06
1.38361e-07
-2.16087e-06
1.37891e-07
-2.19358e-06
1.37474e-07
-2.22593e-06
1.37108e-07
-2.25793e-06
1.36787e-07
-2.28956e-06
1.365e-07
-2.3208e-06
1.36235e-07
-2.35162e-06
1.35976e-07
-2.38198e-06
1.35699e-07
-2.41185e-06
1.3538e-07
-2.44115e-06
1.34987e-07
-2.46984e-06
1.34484e-07
-2.49783e-06
1.33829e-07
-2.52504e-06
1.32975e-07
-2.55137e-06
1.3187e-07
-2.57671e-06
1.30456e-07
-2.60093e-06
1.28672e-07
-2.62389e-06
1.26452e-07
-2.64542e-06
1.23731e-07
-2.66532e-06
1.2045e-07
-2.68345e-06
1.16496e-07
-2.69968e-06
1.11804e-07
-2.71383e-06
1.06253e-07
-2.72568e-06
9.97719e-08
-2.73501e-06
9.22829e-08
-2.74157e-06
8.37255e-08
-2.74513e-06
7.4024e-08
-2.74545e-06
6.31223e-08
-2.74228e-06
5.09543e-08
-2.73536e-06
3.74749e-08
-2.72443e-06
2.26366e-08
-2.70923e-06
6.40488e-09
-2.68954e-06
-1.12303e-08
-2.66503e-06
-3.02897e-08
-2.63535e-06
-5.07603e-08
-2.60011e-06
-7.26297e-08
-2.55901e-06
-9.58327e-08
-2.51173e-06
-1.20354e-07
-2.45798e-06
-1.46103e-07
-2.3975e-06
-1.7302e-07
-2.33003e-06
-2.00996e-07
-2.25537e-06
-2.29955e-07
-2.17331e-06
-2.59721e-07
-2.08375e-06
-2.90162e-07
-1.98657e-06