/*--------------------------------*- C++ -*----------------------------------*\
| =========                 |                                                 |
| \\      /  F ield         | OpenFOAM: The Open Source CFD Toolbox           |
|  \\    /   O peration     | Version:  2412                                  |
|   \\  /    A nd           | Website:  www.openfoam.com                      |
|    \\/     M anipulation  |                                                 |
\*---------------------------------------------------------------------------*/
FoamFile
{
    version     2.0;
    format      ascii;
    arch        "LSB;label=32;scalar=64";
    class       volVectorField;
    location    "100";
    object      U;
}
// * * * * * * * * * * * * * * * * * * * * * * * * * * * * * * * * * * * * * //

dimensions      [0 1 -1 0 0 0 0];

internalField   nonuniform List<vector> 
12225
(
(7.55444 -0.136423 0)
(5.15636 0.0999872 0)
(3.809 0.063045 0)
(2.99318 0.0247426 0)
(2.55978 0.0152233 0)
(2.29835 0.0123965 0)
(2.10525 0.0100768 0)
(1.95896 0.00770093 0)
(1.8504 0.0057859 0)
(1.76925 0.00442472 0)
(1.7078 0.00337405 0)
(1.66153 0.00244809 0)
(1.62785 0.00155659 0)
(1.6052 0.000635744 0)
(1.59329 -0.000544631 0)
(1.59181 -0.002213 0)
(1.6075 -0.00641518 0)
(1.60717 -0.100009 0)
(10.1411 0.703569 0)
(9.34327 0.741745 0)
(8.00352 0.432116 0)
(6.76035 0.245785 0)
(5.90769 0.151975 0)
(5.35356 0.10358 0)
(4.9608 0.0776672 0)
(4.66399 0.0606432 0)
(4.4363 0.0476529 0)
(4.26045 0.0376002 0)
(4.12368 0.0296496 0)
(4.01746 0.0229323 0)
(3.9364 0.0168101 0)
(3.87703 0.0107532 0)
(3.83815 0.00406401 0)
(3.81865 -0.00512014 0)
(3.82795 -0.0185653 0)
(3.8364 -0.0731871 0)
(10.2511 0.727213 0)
(10.6455 0.897864 0)
(10.3391 0.683116 0)
(9.60718 0.50351 0)
(8.85609 0.370064 0)
(8.23174 0.271186 0)
(7.73339 0.204374 0)
(7.33637 0.159171 0)
(7.02076 0.126458 0)
(6.76939 0.101587 0)
(6.5684 0.0818855 0)
(6.40784 0.0653886 0)
(6.28092 0.0506489 0)
(6.18299 0.0364567 0)
(6.11191 0.0214239 0)
(6.06471 0.0027761 0)
(6.0468 -0.0235013 0)
(6.02943 -0.0832227 0)
(10.116 0.493796 0)
(10.6782 0.74963 0)
(10.9709 0.695035 0)
(10.8771 0.6112 0)
(10.583 0.519383 0)
(10.2245 0.426022 0)
(9.86033 0.346378 0)
(9.51932 0.283084 0)
(9.21668 0.232532 0)
(8.95626 0.191622 0)
(8.73569 0.157935 0)
(8.55104 0.129221 0)
(8.39856 0.103526 0)
(8.27506 0.0790874 0)
(8.17847 0.0539844 0)
(8.10542 0.0250349 0)
(8.05733 -0.0116873 0)
(8.00836 -0.0684616 0)
(10.0753 0.366341 0)
(10.5094 0.634877 0)
(10.8765 0.639546 0)
(11.0521 0.598849 0)
(11.0862 0.549593 0)
(11.0362 0.488748 0)
(10.9256 0.426866 0)
(10.7772 0.37035 0)
(10.6133 0.319719 0)
(10.4495 0.274555 0)
(10.2944 0.234292 0)
(10.1525 0.19788 0)
(10.0264 0.163983 0)
(9.91707 0.131042 0)
(9.82517 0.0972792 0)
(9.74868 0.059919 0)
(9.6888 0.0167532 0)
(9.62442 -0.0381108 0)
(10.0637 0.28922 0)
(10.3853 0.550021 0)
(10.6708 0.573669 0)
(10.8719 0.54508 0)
(10.9981 0.514328 0)
(11.0857 0.475686 0)
(11.1333 0.432819 0)
(11.1431 0.390809 0)
(11.1247 0.350613 0)
(11.088 0.312121 0)
(11.0404 0.275295 0)
(10.9871 0.239792 0)
(10.9325 0.204906 0)
(10.8795 0.169577 0)
(10.8302 0.132576 0)
(10.7841 0.0919681 0)
(10.7425 0.0472755 0)
(10.6923 -0.00439883 0)
(10.0498 0.225667 0)
(10.2868 0.47109 0)
(10.5191 0.507738 0)
(10.6907 0.489776 0)
(10.8106 0.46721 0)
(10.9134 0.438233 0)
(10.9993 0.404667 0)
(11.0651 0.371019 0)
(11.1131 0.338523 0)
(11.1472 0.306777 0)
(11.17 0.275421 0)
(11.1837 0.244083 0)
(11.1906 0.212175 0)
(11.1923 0.178891 0)
(11.19 0.143396 0)
(11.1834 0.104561 0)
(11.1726 0.062825 0)
(11.1517 0.0171844 0)
(10.0343 0.173858 0)
(10.2086 0.401266 0)
(10.4193 0.450034 0)
(10.5681 0.443171 0)
(10.6736 0.426067 0)
(10.7636 0.402058 0)
(10.8434 0.3729 0)
(10.9116 0.342831 0)
(10.9695 0.313631 0)
(11.0197 0.28508 0)
(11.0632 0.256717 0)
(11.1007 0.228127 0)
(11.1327 0.198769 0)
(11.1594 0.16799 0)
(11.1811 0.135211 0)
(11.1969 0.099879 0)
(11.2061 0.0626959 0)
(11.2068 0.0239464 0)
(10.0225 0.136569 0)
(10.1564 0.33568 0)
(10.3418 0.395687 0)
(10.4781 0.400001 0)
(10.5772 0.388546 0)
(10.6592 0.368954 0)
(10.7314 0.343443 0)
(10.7938 0.315945 0)
(10.848 0.288627 0)
(10.8964 0.261679 0)
(10.9401 0.23479 0)
(10.9797 0.207639 0)
(11.0152 0.179823 0)
(11.0466 0.150876 0)
(11.0736 0.12045 0)
(11.0956 0.0883853 0)
(11.1114 0.0553496 0)
(11.121 0.0222214 0)
(10.0151 0.109261 0)
(10.1192 0.277594 0)
(10.2747 0.342727 0)
(10.4008 0.355827 0)
(10.497 0.350364 0)
(10.5762 0.335544 0)
(10.6454 0.313971 0)
(10.7051 0.289314 0)
(10.7568 0.263967 0)
(10.8027 0.238518 0)
(10.8443 0.212896 0)
(10.8819 0.186927 0)
(10.9158 0.160385 0)
(10.9461 0.133001 0)
(10.9724 0.104632 0)
(10.9943 0.075346 0)
(11.011 0.0457328 0)
(11.023 0.0167451 0)
(10.0104 0.0868532 0)
(10.0907 0.225687 0)
(10.2171 0.291404 0)
(10.3312 0.310529 0)
(10.4235 0.310321 0)
(10.5011 0.300076 0)
(10.5693 0.282586 0)
(10.6285 0.261127 0)
(10.6797 0.238122 0)
(10.725 0.214478 0)
(10.7656 0.190368 0)
(10.802 0.165783 0)
(10.8347 0.14067 0)
(10.8636 0.114933 0)
(10.8887 0.0885913 0)
(10.9097 0.061833 0)
(10.9262 0.0351711 0)
(10.939 0.00940506 0)
(10.0077 0.0696125 0)
(10.0711 0.184937 0)
(10.1744 0.247448 0)
(10.2757 0.269498 0)
(10.3622 0.272693 0)
(10.4371 0.265828 0)
(10.5038 0.251713 0)
(10.5626 0.233183 0)
(10.6141 0.21253 0)
(10.6595 0.190805 0)
(10.7 0.168356 0)
(10.7362 0.145311 0)
(10.7684 0.121748 0)
(10.7968 0.0977076 0)
(10.8214 0.0733118 0)
(10.842 0.0487996 0)
(10.8586 0.0246102 0)
(10.8719 0.00139017 0)
(10.0059 0.0555472 0)
(10.0558 0.150432 0)
(10.1401 0.207321 0)
(10.2289 0.230289 0)
(10.3084 0.235649 0)
(10.3791 0.231241 0)
(10.4432 0.219862 0)
(10.5008 0.203956 0)
(10.5518 0.185588 0)
(10.5972 0.165846 0)
(10.6378 0.14519 0)
(10.6739 0.123848 0)
(10.7061 0.101998 0)
(10.7343 0.0797735 0)
(10.7587 0.057364 0)
(10.7794 0.03503 0)
(10.7963 0.0131426 0)
(10.8103 -0.00776884 0)
(10.0046 0.0427969 0)
(10.043 0.117437 0)
(10.1101 0.165972 0)
(10.1858 0.187907 0)
(10.2571 0.194287 0)
(10.3222 0.191593 0)
(10.3822 0.182515 0)
(10.4371 0.169084 0)
(10.4866 0.153058 0)
(10.531 0.135499 0)
(10.571 0.11693 0)
(10.6067 0.0976472 0)
(10.6386 0.0778878 0)
(10.6667 0.0578504 0)
(10.6911 0.0377567 0)
(10.712 0.0178665 0)
(10.7294 -0.00152533 0)
(10.7442 -0.0199866 0)
(10.0035 0.0311395 0)
(10.0327 0.0862889 0)
(10.0854 0.124427 0)
(10.1486 0.143239 0)
(10.2112 0.149286 0)
(10.27 0.147421 0)
(10.3252 0.140031 0)
(10.3764 0.128737 0)
(10.4232 0.114942 0)
(10.4657 0.0996077 0)
(10.5042 0.0832765 0)
(10.5388 0.0662808 0)
(10.5698 0.0488805 0)
(10.5973 0.0313026 0)
(10.6214 0.0137699 0)
(10.6423 -0.00348383 0)
(10.6601 -0.0202371 0)
(10.6756 -0.0361421 0)
(10.0026 0.020441 0)
(10.0249 0.057 0)
(10.0663 0.0832727 0)
(10.1186 0.096813 0)
(10.173 0.10097 0)
(10.2257 0.0989185 0)
(10.2759 0.0925036 0)
(10.3232 0.0829239 0)
(10.367 0.0711984 0)
(10.4071 0.058098 0)
(10.4436 0.0441177 0)
(10.4766 0.0295816 0)
(10.5063 0.0147403 0)
(10.5328 -0.000188197 0)
(10.5562 -0.0150044 0)
(10.5768 -0.0295158 0)
(10.5946 -0.0435649 0)
(10.6103 -0.0568805 0)
(10.0021 0.0104527 0)
(10.0195 0.0290859 0)
(10.0529 0.0423738 0)
(10.0967 0.0486131 0)
(10.1442 0.0492069 0)
(10.1916 0.0458223 0)
(10.2375 0.0395802 0)
(10.2813 0.0312158 0)
(10.3222 0.0213499 0)
(10.3601 0.0104858 0)
(10.3947 -0.00101748 0)
(10.4261 -0.012908 0)
(10.4545 -0.0249851 0)
(10.48 -0.0370767 0)
(10.5027 -0.0490279 0)
(10.5228 -0.0606974 0)
(10.5406 -0.0719803 0)
(10.5563 -0.0826724 0)
(10.0017 0.000590511 0)
(10.0166 0.00114679 0)
(10.0454 0.00027888 0)
(10.0842 -0.00263043 0)
(10.1274 -0.00725128 0)
(10.1713 -0.0131661 0)
(10.2143 -0.0200724 0)
(10.2555 -0.0277539 0)
(10.2944 -0.0360089 0)
(10.3305 -0.0446603 0)
(10.3637 -0.0535673 0)
(10.394 -0.062616 0)
(10.4214 -0.0717043 0)
(10.4461 -0.0807362 0)
(10.4683 -0.0896216 0)
(10.4882 -0.0982755 0)
(10.5059 -0.106639 0)
(10.5216 -0.114562 0)
(10.0017 -0.0104406 0)
(10.0166 -0.0301236 0)
(10.0454 -0.0470983 0)
(10.0843 -0.0607698 0)
(10.1274 -0.0717529 0)
(10.1711 -0.0809284 0)
(10.2137 -0.0889241 0)
(10.2544 -0.0961086 0)
(10.2928 -0.102745 0)
(10.3285 -0.10904 0)
(10.3612 -0.115129 0)
(10.391 -0.121083 0)
(10.4182 -0.126929 0)
(10.4427 -0.132666 0)
(10.4648 -0.13828 0)
(10.4847 -0.143745 0)
(10.5026 -0.149041 0)
(10.5186 -0.154067 0)
(10.0022 -0.0222048 0)
(10.0211 -0.063332 0)
(10.0567 -0.0967321 0)
(10.1028 -0.120579 0)
(10.1517 -0.137021 0)
(10.1996 -0.148629 0)
(10.2452 -0.157019 0)
(10.2883 -0.163132 0)
(10.3284 -0.167713 0)
(10.3652 -0.171366 0)
(10.3987 -0.174495 0)
(10.4291 -0.177335 0)
(10.4566 -0.180024 0)
(10.4815 -0.182639 0)
(10.5038 -0.185221 0)
(10.524 -0.187779 0)
(10.5421 -0.190319 0)
(10.5583 -0.19277 0)
(10.003 -0.0348183 0)
(10.0288 -0.0980917 0)
(10.0762 -0.146428 0)
(10.1341 -0.17749 0)
(10.192 -0.196592 0)
(10.2461 -0.208588 0)
(10.2965 -0.215933 0)
(10.3431 -0.219994 0)
(10.3856 -0.221953 0)
(10.424 -0.222748 0)
(10.4585 -0.222957 0)
(10.4896 -0.222909 0)
(10.5174 -0.222795 0)
(10.5424 -0.222733 0)
(10.5648 -0.222781 0)
(10.5849 -0.222959 0)
(10.603 -0.223267 0)
(10.619 -0.223647 0)
(10.0045 -0.0506363 0)
(10.0419 -0.140415 0)
(10.1084 -0.202918 0)
(10.1831 -0.238108 0)
(10.2523 -0.257124 0)
(10.3136 -0.267543 0)
(10.369 -0.272263 0)
(10.4191 -0.273039 0)
(10.4636 -0.271532 0)
(10.503 -0.268951 0)
(10.5378 -0.265951 0)
(10.5688 -0.262889 0)
(10.5963 -0.259978 0)
(10.6209 -0.257346 0)
(10.6429 -0.25504 0)
(10.6626 -0.253065 0)
(10.6804 -0.251396 0)
(10.6961 -0.249956 0)
(10.007 -0.0713398 0)
(10.0625 -0.194375 0)
(10.1577 -0.26799 0)
(10.2526 -0.302803 0)
(10.3328 -0.318517 0)
(10.3998 -0.32503 0)
(10.4588 -0.325159 0)
(10.511 -0.321205 0)
(10.5565 -0.315404 0)
(10.5962 -0.309086 0)
(10.6311 -0.302817 0)
(10.6622 -0.296877 0)
(10.69 -0.291434 0)
(10.7148 -0.286577 0)
(10.7371 -0.282306 0)
(10.7573 -0.278584 0)
(10.7755 -0.275349 0)
(10.7918 -0.272471 0)
(10.0125 -0.099465 0)
(10.0947 -0.263024 0)
(10.2272 -0.340145 0)
(10.3418 -0.367254 0)
(10.4302 -0.376006 0)
(10.5021 -0.377013 0)
(10.5657 -0.371955 0)
(10.6219 -0.36335 0)
(10.6709 -0.353726 0)
(10.7139 -0.344271 0)
(10.7522 -0.335363 0)
(10.7864 -0.327172 0)
(10.817 -0.319796 0)
(10.8443 -0.313249 0)
(10.8687 -0.307482 0)
(10.8905 -0.302431 0)
(10.9101 -0.297993 0)
(10.9271 -0.294097 0)
(10.0229 -0.13906 0)
(10.1485 -0.345817 0)
(10.3202 -0.418564 0)
(10.4573 -0.432649 0)
(10.5578 -0.432533 0)
(10.6423 -0.427148 0)
(10.7193 -0.417066 0)
(10.7872 -0.40475 0)
(10.845 -0.392297 0)
(10.8938 -0.380359 0)
(10.9347 -0.369099 0)
(10.9685 -0.358642 0)
(10.9955 -0.349068 0)
(11.0165 -0.340363 0)
(11.0322 -0.33247 0)
(11.0432 -0.325364 0)
(11.0501 -0.318902 0)
(11.0535 -0.313349 0)
(10.0327 -0.192018 0)
(10.2289 -0.4302 0)
(10.4568 -0.496507 0)
(10.6384 -0.503779 0)
(10.7664 -0.499386 0)
(10.8683 -0.487898 0)
(10.9479 -0.471101 0)
(11.0021 -0.452498 0)
(11.0319 -0.433675 0)
(11.0412 -0.41497 0)
(11.0341 -0.396756 0)
(11.0138 -0.379448 0)
(10.983 -0.363286 0)
(10.9443 -0.348353 0)
(10.8996 -0.33462 0)
(10.8507 -0.322117 0)
(10.7985 -0.310654 0)
(10.7455 -0.300725 0)
(10.0418 -0.278165 0)
(10.3626 -0.528933 0)
(10.6909 -0.575353 0)
(10.8936 -0.577497 0)
(10.9694 -0.565568 0)
(10.9631 -0.536469 0)
(10.8973 -0.498316 0)
(10.7878 -0.459072 0)
(10.6503 -0.421549 0)
(10.4978 -0.386604 0)
(10.339 -0.354841 0)
(10.1797 -0.326569 0)
(10.0232 -0.301682 0)
(9.87195 -0.279912 0)
(9.72713 -0.260909 0)
(9.58958 -0.244353 0)
(9.4587 -0.229876 0)
(9.3373 -0.217507 0)
(10.1274 -0.49644 0)
(10.6275 -0.775073 0)
(10.8227 -0.720455 0)
(10.67 -0.630231 0)
(10.3276 -0.545749 0)
(9.92703 -0.463277 0)
(9.52409 -0.390467 0)
(9.14228 -0.330982 0)
(8.7932 -0.283061 0)
(8.48044 -0.244467 0)
(8.20254 -0.213506 0)
(7.95601 -0.188707 0)
(7.7371 -0.168747 0)
(7.54213 -0.15253 0)
(7.36785 -0.139241 0)
(7.21151 -0.12822 0)
(7.06984 -0.119058 0)
(6.94388 -0.111184 0)
(10.3186 -0.620352 0)
(10.2353 -0.834174 0)
(9.47843 -0.619725 0)
(8.49832 -0.417509 0)
(7.63506 -0.287142 0)
(6.96472 -0.205242 0)
(6.44662 -0.156054 0)
(6.0357 -0.125907 0)
(5.70335 -0.105224 0)
(5.43029 -0.0898218 0)
(5.20218 -0.0780773 0)
(5.00858 -0.0689954 0)
(4.84221 -0.0618282 0)
(4.69766 -0.0560617 0)
(4.57086 -0.0513624 0)
(4.45883 -0.0474277 0)
(4.35848 -0.0442052 0)
(4.27027 -0.0411262 0)
(8.3692 0.165501 0)
(6.3608 -0.106485 0)
(5.0056 -0.109756 0)
(4.0637 -0.0534468 0)
(3.50321 -0.0261182 0)
(3.15303 -0.0189862 0)
(2.88982 -0.0177695 0)
(2.67528 -0.0166869 0)
(2.50041 -0.0148281 0)
(2.35767 -0.0128417 0)
(2.23958 -0.0111435 0)
(2.14041 -0.00977212 0)
(2.05612 -0.00866423 0)
(1.98361 -0.00776112 0)
(1.92052 -0.00703181 0)
(1.8652 -0.00639141 0)
(1.81588 -0.0059539 0)
(1.77298 -0.00537892 0)
(0.000355175 -0.000819185 -3.34359e-20)
(0.0025341 -0.00207166 4.36088e-20)
(0.00607477 -0.00291124 0)
(0.0103874 -0.00336586 0)
(0.014714 -0.00344016 0)
(0.0185437 -0.00318924 -4.1356e-20)
(0.0215403 -0.00269857 0)
(0.023498 -0.00206407 0)
(0.0243151 -0.00136203 0)
(0.0239681 -0.000652596 0)
(0.0224906 3.09528e-05 4.06297e-20)
(0.0199503 0.000665856 0)
(0.0164275 0.00124769 0)
(0.0120078 0.0017696 0)
(0.006774 0.00223122 0)
(0.000804618 0.00262027 4.12575e-20)
(-0.00582445 0.00293786 0)
(-0.0130413 0.00318351 0)
(-0.0207888 0.00337286 0)
(-0.0290176 0.00351861 0)
(-0.037691 0.00364401 0)
(-0.0467867 0.0037603 0)
(-0.0562955 0.00388283 0)
(-0.0662189 0.00401437 3.87831e-20)
(-0.0765657 0.00416307 -3.84201e-20)
(-0.0873499 0.00432629 3.80518e-20)
(-0.0985873 0.00450895 3.76769e-20)
(-0.110294 0.00470663 0)
(-0.122487 0.0049227 0)
(-0.135184 0.00515122 -3.65172e-20)
(-0.148401 0.00539538 -3.61183e-20)
(-0.162152 0.00565038 0)
(-0.176451 0.00591888 0)
(-0.191311 0.00619539 -3.48884e-20)
(-0.206741 0.0064827 0)
(-0.222747 0.00677572 0)
(-0.239332 0.00707655 3.36118e-20)
(-0.256498 0.00738011 0)
(-0.274242 0.00768807 3.27397e-20)
(-0.29256 0.00799571 6.45973e-20)
(-0.311447 0.00830428 0)
(-0.330894 0.00860897 0)
(-0.35089 0.00891046 0)
(-0.371424 0.00920433 0)
(-0.392481 0.00949055 0)
(-0.414042 0.00976548 5.92025e-20)
(-0.436088 0.0100288 5.82921e-20)
(-0.458598 0.0102775 5.73803e-20)
(-0.481548 0.0105109 0)
(-0.504913 0.0107278 -5.55514e-20)
(-0.528668 0.0109282 0)
(-0.552787 0.011112 5.37162e-20)
(-0.577243 0.0112763 5.2796e-20)
(-0.602007 0.0114179 0)
(-0.627052 0.0115336 0)
(-0.652349 0.0116244 0)
(-0.67787 0.0116887 4.91023e-20)
(-0.703586 0.0117294 0)
(-0.729475 0.0117452 0)
(-0.75551 0.0117397 0)
(-0.781672 0.0117103 0)
(-0.807942 0.0116613 0)
(-0.834306 0.0115911 0)
(-0.860752 0.011506 0)
(-0.887271 0.0114042 0)
(-0.913858 0.0112935 -4.06127e-20)
(-0.940514 0.0111723 0)
(-0.967238 0.0110493 0)
(-0.994036 0.0109233 3.76835e-20)
(-1.02092 0.010804 3.66927e-20)
(-1.0479 0.0106915 0)
(-1.07501 0.0105982 -3.46866e-20)
(-1.10228 0.0105232 3.36703e-20)
(-1.12973 0.0104803 0)
(-1.15743 0.0104696 -3.16108e-20)
(-1.18539 0.0105022 0)
(-1.21368 0.0105755 0)
(-1.24233 0.010703 2.84535e-20)
(-1.27137 0.0108793 0)
(-1.30086 0.0111122 -2.63031e-20)
(-1.33085 0.0113955 0)
(-1.36138 0.0117413 2.41149e-20)
(-1.39248 0.0121425 2.30054e-20)
(-1.4242 0.0126085 2.18851e-20)
(-1.45659 0.013131 4.15068e-20)
(-1.48967 0.0137171 -3.92218e-20)
(-1.52343 0.0143499 0)
(-1.55783 0.0150192 0)
(-1.59275 0.0157128 0)
(-1.6281 0.0164439 -2.98478e-20)
(-1.66394 0.0171793 -2.74432e-20)
(-1.70025 0.0179068 2.50138e-20)
(-1.73687 0.0185874 0)
(-1.7736 0.019195 -2.00628e-20)
(-1.8102 0.0196912 -1.75297e-20)
(-1.84644 0.0200434 -1.49478e-20)
(-1.88202 0.0202102 0)
(-1.91665 0.0201689 0)
(-1.94999 0.0198891 0)
(-1.98161 0.0193657 -3.91744e-21)
(-2.01124 0.0185828 0)
(-2.0381 0.0176296 0)
(-2.06228 0.0165282 -5.45848e-21)
(-2.08297 0.015491 0)
(-2.09917 0.0142092 0)
(-2.1104 0.0126009 -1.63289e-20)
(-2.11609 0.0111158 0)
(-2.11599 0.00955393 0)
(-2.11026 0.00798494 2.95607e-20)
(-2.0984 0.00626199 3.46903e-20)
(-2.08011 0.00438467 0)
(-2.05505 0.00229716 -4.63365e-20)
(-2.02292 3.40124e-05 0)
(-1.98347 -0.00245973 6.02251e-20)
(-1.93651 -0.00514888 0)
(-1.88189 -0.00808387 7.68887e-20)
(-1.81964 -0.0112235 8.63905e-20)
(-1.74965 -0.0145447 0)
(-1.67214 -0.0180964 0)
(-1.58726 -0.0218039 0)
(-1.49532 -0.0256254 0)
(-1.3967 -0.0295116 0)
(-1.29189 -0.0333958 0)
(-1.18143 -0.0372061 0)
(-1.066 -0.0408747 2.00947e-19)
(-0.946376 -0.0443128 -2.21076e-19)
(-0.823416 -0.0474665 0)
(-0.698023 -0.0502499 0)
(-0.571114 -0.0526941 0)
(-0.443596 -0.054795 0)
(-0.316441 -0.0566283 -6.90089e-19)
(-0.190276 -0.0584544 0)
(-0.0676184 -0.0575407 7.98649e-19)
(0.053478 -0.0545953 -7.97343e-19)
(0.170476 -0.050782 0)
(0.282612 -0.0467767 0)
(0.389392 -0.0427736 0)
(0.490422 -0.0387993 7.4006e-19)
(0.585418 -0.0349202 7.28939e-19)
(0.674154 -0.0311525 0)
(0.756555 -0.0275485 7.09563e-19)
(0.8325 -0.0241032 7.01233e-19)
(0.902061 -0.0208518 -6.9364e-19)
(0.965184 -0.0177987 0)
(1.02188 -0.0149543 0)
(1.07238 -0.0123553 -6.74954e-19)
(1.1167 -0.00998822 0)
(1.15507 -0.00785277 0)
(1.18778 -0.00595302 0)
(1.2151 -0.00426868 0)
(1.23739 -0.00285103 6.54944e-19)
(1.25485 -0.00161742 6.5242e-19)
(1.26791 -0.000503897 0)
(1.27685 0.000420713 6.48554e-19)
(1.28188 0.00117168 0)
(1.28334 0.00174992 0)
(1.28174 0.00218109 6.44233e-19)
(1.27749 0.00249799 0)
(1.27094 0.00272056 6.42787e-19)
(1.26244 0.00286387 0)
(1.2523 0.00294189 0)
(1.2408 0.00296691 6.42156e-19)
(1.22821 0.0029496 0)
(1.21475 0.00290041 6.42339e-19)
(1.20063 0.00282746 0)
(1.18603 0.0027386 0)
(1.1711 0.00264158 0)
(1.15595 0.0025436 -6.43125e-19)
(1.14066 0.0024524 0)
(1.12526 0.00237694 6.43466e-19)
(1.10974 0.00232713 0)
(1.09402 0.00231634 0)
(1.07793 0.00236092 0)
(1.06118 0.00249021 0)
(1.0434 0.00272759 0)
(1.02362 0.00320322 0)
(1.00182 0.00379035 0)
(0.971785 0.00570813 -1.30237e-18)
(0.947412 0.00613715 0)
(0.852768 0.0172781 0)
(0.000554624 -0.00496963 1.05788e-19)
(0.00437688 -0.0115979 -1.36586e-19)
(0.00938791 -0.0146818 0)
(0.0145162 -0.0152203 7.72229e-20)
(0.0187126 -0.0137973 0)
(0.0214344 -0.0110108 3.35307e-20)
(0.0224381 -0.00738394 -6.37327e-20)
(0.0216225 -0.00334296 -6.12654e-20)
(0.0189682 0.000801594 0)
(0.0145266 0.00483042 -5.7659e-20)
(0.00837704 0.00861279 -2.8216e-20)
(0.00062059 0.0120767 0)
(-0.00862946 0.0152027 0)
(-0.0192569 0.0179938 0)
(-0.031155 0.0204751 0)
(-0.0442249 0.0226725 -2.51834e-20)
(-0.0583837 0.0246191 0)
(-0.0735674 0.0263396 4.84822e-20)
(-0.089725 0.027869 0)
(-0.106809 0.0292405 0)
(-0.124781 0.0304992 -4.66427e-20)
(-0.143609 0.0316799 0)
(-0.163269 0.0328195 4.55714e-20)
(-0.183747 0.0339387 -2.2611e-20)
(-0.205033 0.0350594 2.2348e-20)
(-0.227123 0.0361884 -2.20843e-20)
(-0.250013 0.037336 -2.18186e-20)
(-0.273702 0.0385005 0)
(-0.298189 0.039686 0)
(-0.323473 0.0408857 2.10117e-20)
(-0.349549 0.0421002 -2.05454e-20)
(-0.376414 0.0433201 0)
(-0.40406 0.0445435 0)
(-0.432476 0.0457583 1.99124e-20)
(-0.461649 0.0469618 0)
(-0.491561 0.048142 0)
(-0.522189 0.0492965 -1.90747e-20)
(-0.553509 0.050414 0)
(-0.585494 0.0514928 1.83187e-20)
(-0.618111 0.0525226 -3.6461e-20)
(-0.65133 0.0535026 0)
(-0.685115 0.0544236 0)
(-0.71943 0.0552851 -6.91596e-20)
(-0.754238 0.0560791 -6.80343e-20)
(-0.789501 0.0568059 -6.69093e-20)
(-0.825177 0.0574589 3.27166e-20)
(-0.861227 0.0580393 -3.2504e-20)
(-0.897609 0.0585423 -9.54806e-20)
(-0.934283 0.0589695 6.24202e-20)
(-0.971208 0.0593178 3.08093e-20)
(-1.00834 0.0595888 0)
(-1.04566 0.0597819 -2.96764e-20)
(-1.08311 0.0599036 2.88179e-20)
(-1.12067 0.0599566 0)
(-1.15831 0.0599446 0)
(-1.19601 0.0598713 0)
(-1.23373 0.059742 -2.68174e-20)
(-1.27147 0.0595614 0)
(-1.30918 0.0593352 5.10886e-20)
(-1.34687 0.0590705 0)
(-1.38452 0.0587733 4.87608e-20)
(-1.42212 0.0584514 0)
(-1.45967 0.0581115 -4.63968e-20)
(-1.49717 0.0577628 0)
(-1.53462 0.0574112 4.39913e-20)
(-1.57203 0.0570665 -2.13054e-20)
(-1.60941 0.0567339 0)
(-1.64677 0.0564239 -4.0297e-20)
(-1.68413 0.0561421 -1.9593e-20)
(-1.72151 0.0558976 -1.89586e-20)
(-1.75892 0.0556929 0)
(-1.79639 0.055539 -1.75375e-20)
(-1.83394 0.0554371 -1.70263e-20)
(-1.87159 0.0553943 0)
(-1.90937 0.0554077 1.57167e-20)
(-1.94728 0.0554814 -2.99654e-20)
(-1.98534 0.055611 0)
(-2.02355 0.0557987 -1.37346e-20)
(-2.06191 0.0560368 0)
(-2.10042 0.0563232 3.70446e-20)
(-2.13905 0.056646 0)
(-2.17776 0.0569977 -3.30685e-20)
(-2.21651 0.0573603 -1.04416e-20)
(-2.25523 0.0577219 9.54354e-21)
(-2.29384 0.0580591 1.77658e-20)
(-2.33223 0.0583531 -1.64562e-20)
(-2.37028 0.0585709 0)
(-2.4078 0.0586775 0)
(-2.44455 0.0586476 0)
(-2.48037 0.0584545 3.53579e-20)
(-2.51515 0.0580536 1.07906e-20)
(-2.54872 0.0573825 -9.60544e-21)
(-2.58078 0.0563939 0)
(-2.61103 0.0550611 -6.60142e-21)
(-2.63914 0.0533467 6.1776e-21)
(-2.66479 0.0512234 5.06929e-21)
(-2.68766 0.0486553 0)
(-2.70739 0.0456183 0)
(-2.72363 0.0420896 0)
(-2.73603 0.0380421 6.6122e-22)
(-2.74423 0.0335299 0)
(-2.74802 0.0283689 3.67096e-21)
(-2.74673 0.0225103 8.75098e-21)
(-2.74022 0.0160884 -8.31398e-21)
(-2.72851 0.00911015 0)
(-2.71132 0.00158374 -6.819e-21)
(-2.68848 -0.00623207 0)
(-2.65946 -0.0142917 -1.89887e-20)
(-2.62358 -0.022612 1.11764e-20)
(-2.58065 -0.0312406 1.2881e-20)
(-2.53039 -0.0401305 0)
(-2.47261 -0.0492794 5.05636e-20)
(-2.40715 -0.0585735 -3.8441e-20)
(-2.33387 -0.0679933 -2.19963e-20)
(-2.25271 -0.0773924 0)
(-2.16364 -0.0867385 -2.84251e-20)
(-2.06669 -0.0958744 -9.58116e-20)
(-1.96207 -0.104749 0)
(-1.84984 -0.113224 -8.08686e-20)
(-1.73036 -0.121263 -9.07959e-20)
(-1.60398 -0.12873 -1.01661e-19)
(-1.47112 -0.135544 0)
(-1.33227 -0.141581 0)
(-1.18796 -0.146766 0)
(-1.03882 -0.150998 7.60306e-20)
(-0.885579 -0.154226 8.65591e-20)
(-0.729079 -0.15639 0)
(-0.570239 -0.157457 2.03639e-19)
(-0.409981 -0.157429 2.21374e-19)
(-0.249384 -0.156342 0)
(-0.0883472 -0.154304 2.57339e-19)
(0.0726255 -0.151947 5.20987e-19)
(0.231473 -0.14884 -2.73227e-19)
(0.388147 -0.143664 -2.76007e-19)
(0.541551 -0.137194 0)
(0.691138 -0.130176 0)
(0.836303 -0.122887 0)
(0.976479 -0.115416 -3.23959e-19)
(1.11117 -0.107839 3.2621e-19)
(1.23997 -0.100196 6.75874e-19)
(1.36257 -0.0925443 -3.48752e-19)
(1.47874 -0.0849374 3.50328e-19)
(1.58833 -0.0774066 3.62616e-19)
(1.69108 -0.0699942 0)
(1.78687 -0.0627381 0)
(1.87555 -0.0557041 -3.75681e-19)
(1.95703 -0.0489175 0)
(2.0313 -0.0424281 0)
(2.09836 -0.0362843 7.84368e-19)
(2.15831 -0.0305093 0)
(2.21126 -0.025096 3.98682e-19)
(2.25744 -0.0200819 -4.05142e-19)
(2.29701 -0.0154627 0)
(2.33023 -0.0111918 4.09553e-19)
(2.35749 -0.0072778 0)
(2.37911 -0.00377142 0)
(2.39527 -0.000683088 -4.20311e-19)
(2.40627 0.00198663 8.43566e-19)
(2.41251 0.00426301 -4.2469e-19)
(2.41445 0.00617213 0)
(2.4125 0.00774759 0)
(2.4071 0.0090171 4.30197e-19)
(2.39865 0.010015 0)
(2.38756 0.0107685 4.34462e-19)
(2.37419 0.0113125 0)
(2.35889 0.0116758 0)
(2.34198 0.0118953 0)
(2.32373 0.0120036 4.42328e-19)
(2.30437 0.0120422 0)
(2.28407 0.0120512 -4.45409e-19)
(2.26294 0.0120834 0)
(2.24098 0.012196 0)
(2.2181 0.0124702 8.98834e-19)
(2.19404 0.0130098 -9.01416e-19)
(2.16842 0.0139725 0)
(2.14019 0.0156058 0)
(2.1093 0.018259 0)
(2.06885 0.0230678 2.74474e-18)
(2.03433 0.0306702 0)
(1.93106 0.0481365 -1.8584e-18)
(0.000523697 -0.0100093 -1.07034e-22)
(0.0038632 -0.0210151 1.74346e-19)
(0.00718882 -0.0243751 0)
(0.0095972 -0.0225758 -1.29915e-19)
(0.0102768 -0.0176108 0)
(0.00903724 -0.01089 0)
(0.00591307 -0.00331282 5.36302e-23)
(0.000976511 0.00454129 4.20968e-20)
(-0.00569067 0.0122909 3.95266e-20)
(-0.0140129 0.0196959 3.75507e-20)
(-0.0239202 0.0266143 0)
(-0.0353431 0.0329759 0)
(-0.0482138 0.0387603 -3.3327e-20)
(-0.0624651 0.0439853 -6.46589e-20)
(-0.0780343 0.0486921 6.29303e-20)
(-0.0948635 0.0529363 0)
(-0.112903 0.0567781 6.01454e-20)
(-0.13211 0.0602758 -2.96238e-20)
(-0.152448 0.0634796 0)
(-0.173878 0.0664383 5.71855e-20)
(-0.196369 0.0691982 2.8312e-20)
(-0.219887 0.0718049 -5.5625e-20)
(-0.244401 0.0742969 -2.75778e-20)
(-0.269883 0.0767071 0)
(-0.296306 0.0790594 5.35045e-20)
(-0.323646 0.0813718 5.28235e-20)
(-0.351877 0.083654 0)
(-0.380976 0.0859114 5.14788e-20)
(-0.410917 0.088143 0)
(-0.441676 0.0903467 5.0147e-20)
(-0.473225 0.0925162 2.4885e-20)
(-0.505535 0.0946449 0)
(-0.538577 0.0967199 0)
(-0.572316 0.0987309 0)
(-0.606717 0.100665 0)
(-0.641743 0.102512 0)
(-0.677354 0.104262 0)
(-0.713507 0.105905 4.48926e-20)
(-0.75016 0.107432 -6.65083e-20)
(-0.787267 0.108838 0)
(-0.824783 0.110115 0)
(-0.862663 0.11126 0)
(-0.90086 0.112266 2.69458e-22)
(-0.939329 0.113132 4.12927e-20)
(-0.978027 0.113855 8.10374e-20)
(-1.01691 0.114437 -7.97558e-20)
(-1.05593 0.114875 -3.91136e-20)
(-1.09505 0.115174 3.87201e-20)
(-1.13424 0.115334 -2.36506e-22)
(-1.17345 0.115363 3.7206e-20)
(-1.21265 0.115262 0)
(-1.25182 0.115041 3.59351e-20)
(-1.29092 0.114704 -2.08309e-22)
(-1.32993 0.114261 0)
(-1.36882 0.11372 0)
(-1.40759 0.113094 -3.33718e-20)
(-1.4462 0.112389 0)
(-1.48465 0.111619 0)
(-1.52292 0.110792 3.12373e-20)
(-1.56101 0.109921 6.14625e-20)
(-1.59892 0.109015 -3.02046e-20)
(-1.63663 0.10809 0)
(-1.67416 0.107153 2.88151e-20)
(-1.71151 0.106219 0)
(-1.74868 0.105296 2.71349e-20)
(-1.78569 0.104399 2.66699e-20)
(-1.82253 0.103535 -5.16298e-20)
(-1.85924 0.102715 -2.49548e-20)
(-1.8958 0.101946 0)
(-1.93224 0.101236 4.71388e-20)
(-1.96856 0.100589 0)
(-2.00477 0.10001 6.61986e-20)
(-2.04088 0.0995014 4.24775e-20)
(-2.07689 0.0990609 4.08874e-20)
(-2.1128 0.0986859 -3.92807e-20)
(-2.1486 0.0983707 5.66325e-20)
(-2.18428 0.098109 0)
(-2.21981 0.0978887 0)
(-2.25516 0.0976967 -3.27241e-20)
(-2.29029 0.0975128 -4.67777e-20)
(-2.32514 0.0973193 0)
(-2.35965 0.0970882 1.40726e-20)
(-2.39374 0.0967931 0)
(-2.42731 0.0963957 -3.68439e-20)
(-2.46026 0.0958648 -4.78894e-22)
(-2.49246 0.095155 4.98386e-22)
(-2.52377 0.0942301 1.94828e-20)
(-2.554 0.0930451 0)
(-2.58293 0.0915654 -1.6257e-20)
(-2.61038 0.0897354 -5.56377e-22)
(-2.63622 0.0874824 0)
(-2.66028 0.0847392 0)
(-2.68232 0.0814611 0)
(-2.70208 0.077609 9.12461e-21)
(-2.7193 0.0731492 0)
(-2.73372 0.0680437 0)
(-2.74506 0.0622599 0)
(-2.75306 0.0557674 0)
(-2.75745 0.0485423 0)
(-2.75795 0.040571 2.66265e-23)
(-2.7543 0.0318333 0)
(-2.74624 0.0223307 -2.41613e-21)
(-2.73355 0.0121075 -3.91044e-21)
(-2.716 0.00121382 5.44622e-21)
(-2.69328 -0.010308 0)
(-2.66492 -0.0224103 8.68938e-21)
(-2.63063 -0.0350536 0)
(-2.59 -0.0481907 1.23051e-20)
(-2.54272 -0.0617489 -1.43151e-20)
(-2.48851 -0.0756921 -4.92728e-20)
(-2.42714 -0.0899666 0)
(-2.35841 -0.104492 -6.39906e-20)
(-2.28212 -0.119187 -2.36088e-20)
(-2.19817 -0.133931 0)
(-2.10647 -0.148594 -6.12764e-20)
(-2.007 -0.163046 -6.8999e-20)
(-1.89983 -0.177133 1.17276e-19)
(-1.78504 -0.190745 0)
(-1.6628 -0.203706 5.00035e-20)
(-1.53344 -0.215901 5.58584e-20)
(-1.39731 -0.227183 1.83454e-19)
(-1.25486 -0.237401 0)
(-1.1066 -0.246402 0)
(-0.953093 -0.254056 0)
(-0.795015 -0.260236 8.83626e-20)
(-0.6331 -0.264844 0)
(-0.46813 -0.267789 0)
(-0.300921 -0.269047 -1.20151e-19)
(-0.13209 -0.268687 -1.28979e-19)
(0.0377904 -0.266803 0)
(0.207642 -0.263454 0)
(0.375998 -0.259005 -2.90708e-19)
(0.542583 -0.253656 0)
(0.707099 -0.246824 3.16428e-19)
(0.868931 -0.238622 3.25371e-19)
(1.0274 -0.229374 0)
(1.18184 -0.219355 0)
(1.33166 -0.208747 -3.67125e-19)
(1.47639 -0.197685 -4.75399e-21)
(1.61563 -0.186271 -4.60988e-21)
(1.7491 -0.174615 0)
(1.87658 -0.162828 -8.39916e-19)
(1.99789 -0.15101 0)
(2.11286 -0.139241 0)
(2.22138 -0.127564 0)
(2.32329 -0.11605 4.65114e-19)
(2.41846 -0.10476 0)
(2.50689 -0.0937772 -9.62067e-19)
(2.58851 -0.0831735 -4.93307e-19)
(2.66337 -0.0730081 0)
(2.73151 -0.0633185 -5.10396e-19)
(2.79305 -0.0541384 0)
(2.84809 -0.0454798 0)
(2.8968 -0.0373735 -1.59813e-18)
(2.93938 -0.0298329 1.07935e-18)
(2.97605 -0.0228721 0)
(3.00704 -0.0164916 1.109e-18)
(3.03258 -0.0107028 -5.62784e-19)
(3.05286 -0.00551009 0)
(3.06815 -0.000914461 0)
(3.07876 0.00311104 0)
(3.08502 0.00659246 -1.75147e-18)
(3.08727 0.00956918 0)
(3.08584 0.0120735 -5.93916e-19)
(3.08106 0.0141503 0)
(3.07328 0.0158403 0)
(3.06281 0.0171978 0)
(3.04995 0.0182746 0)
(3.03498 0.0191385 0)
(3.01814 0.0198588 0)
(2.9996 0.0205263 -1.23582e-18)
(2.97947 0.0212431 0)
(2.95777 0.0221487 -6.22362e-19)
(2.93437 0.0234207 1.87234e-18)
(2.90904 0.0253375 0)
(2.88106 0.028288 0)
(2.85026 0.0328858 -1.25791e-18)
(2.81198 0.0403555 -1.26262e-18)
(2.77784 0.0523735 1.26498e-18)
(2.69774 0.0738652 1.28086e-18)
(0.000311056 -0.0136517 -2.07155e-19)
(0.00187811 -0.0260802 -2.50491e-19)
(0.00196204 -0.0273515 -1.39159e-19)
(0.000379087 -0.0217405 -5.62269e-20)
(-0.00314239 -0.0126941 0)
(-0.00849833 -0.0021424 7.95183e-20)
(-0.0155221 0.00893059 -3.51181e-20)
(-0.0240801 0.0199883 0)
(-0.0340805 0.0307162 -2.96199e-20)
(-0.0454609 0.040923 0)
(-0.0581806 0.0504965 5.28662e-20)
(-0.0722083 0.0593824 0)
(-0.0875185 0.0675694 2.44648e-20)
(-0.104086 0.0750799 4.74049e-20)
(-0.121886 0.0819591 -4.61045e-20)
(-0.140891 0.088267 0)
(-0.161074 0.0940683 -4.40024e-20)
(-0.182404 0.0994262 0)
(-0.204853 0.104398 0)
(-0.228391 0.109036 -4.16617e-20)
(-0.252987 0.113388 0)
(-0.278608 0.117501 1.53433e-22)
(-0.305223 0.121413 0)
(-0.332794 0.125158 0)
(-0.361287 0.128762 -1.65254e-22)
(-0.390663 0.132245 -3.81797e-20)
(-0.420883 0.135616 -3.74859e-20)
(-0.451907 0.138882 -3.71398e-20)
(-0.483694 0.142042 0)
(-0.516202 0.145092 -7.20685e-20)
(-0.549387 0.148025 0)
(-0.583204 0.15083 -3.49373e-20)
(-0.617605 0.153499 0)
(-0.652546 0.15602 0)
(-0.68798 0.158381 3.34453e-20)
(-0.723862 0.160571 0)
(-0.760144 0.162581 -3.24719e-20)
(-0.796778 0.164401 -1.67554e-22)
(-0.833719 0.166023 6.31957e-20)
(-0.870919 0.167443 -6.20852e-20)
(-0.90833 0.168657 0)
(-0.945908 0.169662 0)
(-0.983607 0.170458 -2.94913e-20)
(-1.02139 0.171045 0)
(-1.0592 0.171425 -2.88702e-20)
(-1.09702 0.171604 2.84102e-20)
(-1.1348 0.171585 2.79523e-20)
(-1.17252 0.171376 0)
(-1.21012 0.170985 -2.70409e-20)
(-1.2476 0.170422 -2.65868e-20)
(-1.28492 0.169696 5.20322e-20)
(-1.32206 0.16882 -2.56799e-20)
(-1.359 0.167805 -2.52261e-20)
(-1.39572 0.166664 0)
(-1.4322 0.165409 0)
(-1.46843 0.164055 2.38547e-20)
(-1.5044 0.162615 0)
(-1.54009 0.161105 0)
(-1.57551 0.159539 -4.49128e-20)
(-1.61064 0.157931 -4.39637e-20)
(-1.64548 0.156297 0)
(-1.68004 0.154649 0)
(-1.7143 0.153004 0)
(-1.74829 0.151373 0)
(-1.782 0.149769 -3.90514e-20)
(-1.81543 0.148204 3.79127e-20)