/*--------------------------------*- C++ -*----------------------------------*\
| =========                 |                                                 |
| \\      /  F ield         | OpenFOAM: The Open Source CFD Toolbox           |
|  \\    /   O peration     | Version:  2412                                  |
|   \\  /    A nd           | Website:  www.openfoam.com                      |
|    \\/     M anipulation  |                                                 |
\*---------------------------------------------------------------------------*/
FoamFile
{
    version     2.0;
    format      ascii;
    arch        "LSB;label=32;scalar=64";
    class       volVectorField;
    location    "0";
    object      C;
}
// * * * * * * * * * * * * * * * * * * * * * * * * * * * * * * * * * * * * * //

dimensions      [0 1 0 0 0 0 0];

internalField   nonuniform List<vector> 
24000
(
(-2.475 -0.475 -0.475)
(-2.425 -0.475 -0.475)
(-2.375 -0.475 -0.475)
(-2.325 -0.475 -0.475)
(-2.275 -0.475 -0.475)
(-2.225 -0.475 -0.475)
(-2.175 -0.475 -0.475)
(-2.125 -0.475 -0.475)
(-2.075 -0.475 -0.475)
(-2.025 -0.475 -0.475)
(-1.975 -0.475 -0.475)
(-1.925 -0.475 -0.475)
(-1.875 -0.475 -0.475)
(-1.825 -0.475 -0.475)
(-1.775 -0.475 -0.475)
(-1.725 -0.475 -0.475)
(-1.675 -0.475 -0.475)
(-1.625 -0.475 -0.475)
(-1.575 -0.475 -0.475)
(-1.525 -0.475 -0.475)
(-1.475 -0.475 -0.475)
(-1.425 -0.475 -0.475)
(-1.375 -0.475 -0.475)
(-1.325 -0.475 -0.475)
(-1.275 -0.475 -0.475)
(-1.225 -0.475 -0.475)
(-1.175 -0.475 -0.475)
(-1.125 -0.475 -0.475)
(-1.075 -0.475 -0.475)
(-1.025 -0.475 -0.475)
(-0.975 -0.475 -0.475)
(-0.925 -0.475 -0.475)
(-0.875 -0.475 -0.475)
(-0.825 -0.475 -0.475)
(-0.775 -0.475 -0.475)
(-0.725 -0.475 -0.475)
(-0.675 -0.475 -0.475)
(-0.625 -0.475 -0.475)
(-0.575 -0.475 -0.475)
(-0.525 -0.475 -0.475)
(-0.475 -0.475 -0.475)
(-0.425 -0.475 -0.475)
(-0.375 -0.475 -0.475)
(-0.325 -0.475 -0.475)
(-0.275 -0.475 -0.475)
(-0.225 -0.475 -0.475)
(-0.175 -0.475 -0.475)
(-0.125 -0.475 -0.475)
(-0.075 -0.475 -0.475)
(-0.025 -0.475 -0.475)
(0.025 -0.475 -0.475)
(0.075 -0.475 -0.475)
(0.125 -0.475 -0.475)
(0.175 -0.475 -0.475)
(0.225 -0.475 -0.475)
(0.275 -0.475 -0.475)
(0.325 -0.475 -0.475)
(0.375 -0.475 -0.475)
(0.425 -0.475 -0.475)
(0.475 -0.475 -0.475)
(-2.475 -0.425 -0.475)
(-2.425 -0.425 -0.475)
(-2.375 -0.425 -0.475)
(-2.325 -0.425 -0.475)
(-2.275 -0.425 -0.475)
(-2.225 -0.425 -0.475)
(-2.175 -0.425 -0.475)
(-2.125 -0.425 -0.475)
(-2.075 -0.425 -0.475)
(-2.025 -0.425 -0.475)
(-1.975 -0.425 -0.475)
(-1.925 -0.425 -0.475)
(-1.875 -0.425 -0.475)
(-1.825 -0.425 -0.475)
(-1.775 -0.425 -0.475)
(-1.725 -0.425 -0.475)
(-1.675 -0.425 -0.475)
(-1.625 -0.425 -0.475)
(-1.575 -0.425 -0.475)
(-1.525 -0.425 -0.475)
(-1.475 -0.425 -0.475)
(-1.425 -0.425 -0.475)
(-1.375 -0.425 -0.475)
(-1.325 -0.425 -0.475)
(-1.275 -0.425 -0.475)
(-1.225 -0.425 -0.475)
(-1.175 -0.425 -0.475)
(-1.125 -0.425 -0.475)
(-1.075 -0.425 -0.475)
(-1.025 -0.425 -0.475)
(-0.975 -0.425 -0.475)
(-0.925 -0.425 -0.475)
(-0.875 -0.425 -0.475)
(-0.825 -0.425 -0.475)
(-0.775 -0.425 -0.475)
(-0.725 -0.425 -0.475)
(-0.675 -0.425 -0.475)
(-0.625 -0.425 -0.475)
(-0.575 -0.425 -0.475)
(-0.525 -0.425 -0.475)
(-0.475 -0.425 -0.475)
(-0.425 -0.425 -0.475)
(-0.375 -0.425 -0.475)
(-0.325 -0.425 -0.475)
(-0.275 -0.425 -0.475)
(-0.225 -0.425 -0.475)
(-0.175 -0.425 -0.475)
(-0.125 -0.425 -0.475)
(-0.075 -0.425 -0.475)
(-0.025 -0.425 -0.475)
(0.025 -0.425 -0.475)
(0.075 -0.425 -0.475)
(0.125 -0.425 -0.475)
(0.175 -0.425 -0.475)
(0.225 -0.425 -0.475)
(0.275 -0.425 -0.475)
(0.325 -0.425 -0.475)
(0.375 -0.425 -0.475)
(0.425 -0.425 -0.475)
(0.475 -0.425 -0.475)
(-2.475 -0.375 -0.475)
(-2.425 -0.375 -0.475)
(-2.375 -0.375 -0.475)
(-2.325 -0.375 -0.475)
(-2.275 -0.375 -0.475)
(-2.225 -0.375 -0.475)
(-2.175 -0.375 -0.475)
(-2.125 -0.375 -0.475)
(-2.075 -0.375 -0.475)
(-2.025 -0.375 -0.475)
(-1.975 -0.375 -0.475)
(-1.925 -0.375 -0.475)
(-1.875 -0.375 -0.475)
(-1.825 -0.375 -0.475)
(-1.775 -0.375 -0.475)
(-1.725 -0.375 -0.475)
(-1.675 -0.375 -0.475)
(-1.625 -0.375 -0.475)
(-1.575 -0.375 -0.475)
(-1.525 -0.375 -0.475)
(-1.475 -0.375 -0.475)
(-1.425 -0.375 -0.475)
(-1.375 -0.375 -0.475)
(-1.325 -0.375 -0.475)
(-1.275 -0.375 -0.475)
(-1.225 -0.375 -0.475)
(-1.175 -0.375 -0.475)
(-1.125 -0.375 -0.475)
(-1.075 -0.375 -0.475)
(-1.025 -0.375 -0.475)
(-0.975 -0.375 -0.475)
(-0.925 -0.375 -0.475)
(-0.875 -0.375 -0.475)
(-0.825 -0.375 -0.475)
(-0.775 -0.375 -0.475)
(-0.725 -0.375 -0.475)
(-0.675 -0.375 -0.475)
(-0.625 -0.375 -0.475)
(-0.575 -0.375 -0.475)
(-0.525 -0.375 -0.475)
(-0.475 -0.375 -0.475)
(-0.425 -0.375 -0.475)
(-0.375 -0.375 -0.475)
(-0.325 -0.375 -0.475)
(-0.275 -0.375 -0.475)
(-0.225 -0.375 -0.475)
(-0.175 -0.375 -0.475)
(-0.125 -0.375 -0.475)
(-0.075 -0.375 -0.475)
(-0.025 -0.375 -0.475)
(0.025 -0.375 -0.475)
(0.075 -0.375 -0.475)
(0.125 -0.375 -0.475)
(0.175 -0.375 -0.475)
(0.225 -0.375 -0.475)
(0.275 -0.375 -0.475)
(0.325 -0.375 -0.475)
(0.375 -0.375 -0.475)
(0.425 -0.375 -0.475)
(0.475 -0.375 -0.475)
(-2.475 -0.325 -0.475)
(-2.425 -0.325 -0.475)
(-2.375 -0.325 -0.475)
(-2.325 -0.325 -0.475)
(-2.275 -0.325 -0.475)
(-2.225 -0.325 -0.475)
(-2.175 -0.325 -0.475)
(-2.125 -0.325 -0.475)
(-2.075 -0.325 -0.475)
(-2.025 -0.325 -0.475)
(-1.975 -0.325 -0.475)
(-1.925 -0.325 -0.475)
(-1.875 -0.325 -0.475)
(-1.825 -0.325 -0.475)
(-1.775 -0.325 -0.475)
(-1.725 -0.325 -0.475)
(-1.675 -0.325 -0.475)
(-1.625 -0.325 -0.475)
(-1.575 -0.325 -0.475)
(-1.525 -0.325 -0.475)
(-1.475 -0.325 -0.475)
(-1.425 -0.325 -0.475)
(-1.375 -0.325 -0.475)
(-1.325 -0.325 -0.475)
(-1.275 -0.325 -0.475)
(-1.225 -0.325 -0.475)
(-1.175 -0.325 -0.475)
(-1.125 -0.325 -0.475)
(-1.075 -0.325 -0.475)
(-1.025 -0.325 -0.475)
(-0.975 -0.325 -0.475)
(-0.925 -0.325 -0.475)
(-0.875 -0.325 -0.475)
(-0.825 -0.325 -0.475)
(-0.775 -0.325 -0.475)
(-0.725 -0.325 -0.475)
(-0.675 -0.325 -0.475)
(-0.625 -0.325 -0.475)
(-0.575 -0.325 -0.475)
(-0.525 -0.325 -0.475)
(-0.475 -0.325 -0.475)
(-0.425 -0.325 -0.475)
(-0.375 -0.325 -0.475)
(-0.325 -0.325 -0.475)
(-0.275 -0.325 -0.475)
(-0.225 -0.325 -0.475)
(-0.175 -0.325 -0.475)
(-0.125 -0.325 -0.475)
(-0.075 -0.325 -0.475)
(-0.025 -0.325 -0.475)
(0.025 -0.325 -0.475)
(0.075 -0.325 -0.475)
(0.125 -0.325 -0.475)
(0.175 -0.325 -0.475)
(0.225 -0.325 -0.475)
(0.275 -0.325 -0.475)
(0.325 -0.325 -0.475)
(0.375 -0.325 -0.475)
(0.425 -0.325 -0.475)
(0.475 -0.325 -0.475)
(-2.475 -0.275 -0.475)
(-2.425 -0.275 -0.475)
(-2.375 -0.275 -0.475)
(-2.325 -0.275 -0.475)
(-2.275 -0.275 -0.475)
(-2.225 -0.275 -0.475)
(-2.175 -0.275 -0.475)
(-2.125 -0.275 -0.475)
(-2.075 -0.275 -0.475)
(-2.025 -0.275 -0.475)
(-1.975 -0.275 -0.475)
(-1.925 -0.275 -0.475)
(-1.875 -0.275 -0.475)
(-1.825 -0.275 -0.475)
(-1.775 -0.275 -0.475)
(-1.725 -0.275 -0.475)
(-1.675 -0.275 -0.475)
(-1.625 -0.275 -0.475)
(-1.575 -0.275 -0.475)
(-1.525 -0.275 -0.475)
(-1.475 -0.275 -0.475)
(-1.425 -0.275 -0.475)
(-1.375 -0.275 -0.475)
(-1.325 -0.275 -0.475)
(-1.275 -0.275 -0.475)
(-1.225 -0.275 -0.475)
(-1.175 -0.275 -0.475)
(-1.125 -0.275 -0.475)
(-1.075 -0.275 -0.475)
(-1.025 -0.275 -0.475)
(-0.975 -0.275 -0.475)
(-0.925 -0.275 -0.475)
(-0.875 -0.275 -0.475)
(-0.825 -0.275 -0.475)
(-0.775 -0.275 -0.475)
(-0.725 -0.275 -0.475)
(-0.675 -0.275 -0.475)
(-0.625 -0.275 -0.475)
(-0.575 -0.275 -0.475)
(-0.525 -0.275 -0.475)
(-0.475 -0.275 -0.475)
(-0.425 -0.275 -0.475)
(-0.375 -0.275 -0.475)
(-0.325 -0.275 -0.475)
(-0.275 -0.275 -0.475)
(-0.225 -0.275 -0.475)
(-0.175 -0.275 -0.475)
(-0.125 -0.275 -0.475)
(-0.075 -0.275 -0.475)
(-0.025 -0.275 -0.475)
(0.025 -0.275 -0.475)
(0.075 -0.275 -0.475)
(0.125 -0.275 -0.475)
(0.175 -0.275 -0.475)
(0.225 -0.275 -0.475)
(0.275 -0.275 -0.475)
(0.325 -0.275 -0.475)
(0.375 -0.275 -0.475)
(0.425 -0.275 -0.475)
(0.475 -0.275 -0.475)
(-2.475 -0.225 -0.475)
(-2.425 -0.225 -0.475)
(-2.375 -0.225 -0.475)
(-2.325 -0.225 -0.475)
(-2.275 -0.225 -0.475)
(-2.225 -0.225 -0.475)
(-2.175 -0.225 -0.475)
(-2.125 -0.225 -0.475)
(-2.075 -0.225 -0.475)
(-2.025 -0.225 -0.475)
(-1.975 -0.225 -0.475)
(-1.925 -0.225 -0.475)
(-1.875 -0.225 -0.475)
(-1.825 -0.225 -0.475)
(-1.775 -0.225 -0.475)
(-1.725 -0.225 -0.475)
(-1.675 -0.225 -0.475)
(-1.625 -0.225 -0.475)
(-1.575 -0.225 -0.475)
(-1.525 -0.225 -0.475)
(-1.475 -0.225 -0.475)
(-1.425 -0.225 -0.475)
(-1.375 -0.225 -0.475)
(-1.325 -0.225 -0.475)
(-1.275 -0.225 -0.475)
(-1.225 -0.225 -0.475)
(-1.175 -0.225 -0.475)
(-1.125 -0.225 -0.475)
(-1.075 -0.225 -0.475)
(-1.025 -0.225 -0.475)
(-0.975 -0.225 -0.475)
(-0.925 -0.225 -0.475)
(-0.875 -0.225 -0.475)
(-0.825 -0.225 -0.475)
(-0.775 -0.225 -0.475)
(-0.725 -0.225 -0.475)
(-0.675 -0.225 -0.475)
(-0.625 -0.225 -0.475)
(-0.575 -0.225 -0.475)
(-0.525 -0.225 -0.475)
(-0.475 -0.225 -0.475)
(-0.425 -0.225 -0.475)
(-0.375 -0.225 -0.475)
(-0.325 -0.225 -0.475)
(-0.275 -0.225 -0.475)
(-0.225 -0.225 -0.475)
(-0.175 -0.225 -0.475)
(-0.125 -0.225 -0.475)
(-0.075 -0.225 -0.475)
(-0.025 -0.225 -0.475)
(0.025 -0.225 -0.475)
(0.075 -0.225 -0.475)
(0.125 -0.225 -0.475)
(0.175 -0.225 -0.475)
(0.225 -0.225 -0.475)
(0.275 -0.225 -0.475)
(0.325 -0.225 -0.475)
(0.375 -0.225 -0.475)
(0.425 -0.225 -0.475)
(0.475 -0.225 -0.475)
(-2.475 -0.175 -0.475)
(-2.425 -0.175 -0.475)
(-2.375 -0.175 -0.475)
(-2.325 -0.175 -0.475)
(-2.275 -0.175 -0.475)
(-2.225 -0.175 -0.475)
(-2.175 -0.175 -0.475)
(-2.125 -0.175 -0.475)
(-2.075 -0.175 -0.475)
(-2.025 -0.175 -0.475)
(-1.975 -0.175 -0.475)
(-1.925 -0.175 -0.475)
(-1.875 -0.175 -0.475)
(-1.825 -0.175 -0.475)
(-1.775 -0.175 -0.475)
(-1.725 -0.175 -0.475)
(-1.675 -0.175 -0.475)
(-1.625 -0.175 -0.475)
(-1.575 -0.175 -0.475)
(-1.525 -0.175 -0.475)
(-1.475 -0.175 -0.475)
(-1.425 -0.175 -0.475)
(-1.375 -0.175 -0.475)
(-1.325 -0.175 -0.475)
(-1.275 -0.175 -0.475)
(-1.225 -0.175 -0.475)
(-1.175 -0.175 -0.475)
(-1.125 -0.175 -0.475)
(-1.075 -0.175 -0.475)
(-1.025 -0.175 -0.475)
(-0.975 -0.175 -0.475)
(-0.925 -0.175 -0.475)
(-0.875 -0.175 -0.475)
(-0.825 -0.175 -0.475)
(-0.775 -0.175 -0.475)
(-0.725 -0.175 -0.475)
(-0.675 -0.175 -0.475)
(-0.625 -0.175 -0.475)
(-0.575 -0.175 -0.475)
(-0.525 -0.175 -0.475)
(-0.475 -0.175 -0.475)
(-0.425 -0.175 -0.475)
(-0.375 -0.175 -0.475)
(-0.325 -0.175 -0.475)
(-0.275 -0.175 -0.475)
(-0.225 -0.175 -0.475)
(-0.175 -0.175 -0.475)
(-0.125 -0.175 -0.475)
(-0.075 -0.175 -0.475)
(-0.025 -0.175 -0.475)
(0.025 -0.175 -0.475)
(0.075 -0.175 -0.475)
(0.125 -0.175 -0.475)
(0.175 -0.175 -0.475)
(0.225 -0.175 -0.475)
(0.275 -0.175 -0.475)
(0.325 -0.175 -0.475)
(0.375 -0.175 -0.475)
(0.425 -0.175 -0.475)
(0.475 -0.175 -0.475)
(-2.475 -0.125 -0.475)
(-2.425 -0.125 -0.475)
(-2.375 -0.125 -0.475)
(-2.325 -0.125 -0.475)
(-2.275 -0.125 -0.475)
(-2.225 -0.125 -0.475)
(-2.175 -0.125 -0.475)
(-2.125 -0.125 -0.475)
(-2.075 -0.125 -0.475)
(-2.025 -0.125 -0.475)
(-1.975 -0.125 -0.475)
(-1.925 -0.125 -0.475)
(-1.875 -0.125 -0.475)
(-1.825 -0.125 -0.475)
(-1.775 -0.125 -0.475)
(-1.725 -0.125 -0.475)
(-1.675 -0.125 -0.475)
(-1.625 -0.125 -0.475)
(-1.575 -0.125 -0.475)
(-1.525 -0.125 -0.475)
(-1.475 -0.125 -0.475)
(-1.425 -0.125 -0.475)
(-1.375 -0.125 -0.475)
(-1.325 -0.125 -0.475)
(-1.275 -0.125 -0.475)
(-1.225 -0.125 -0.475)
(-1.175 -0.125 -0.475)
(-1.125 -0.125 -0.475)
(-1.075 -0.125 -0.475)
(-1.025 -0.125 -0.475)
(-0.975 -0.125 -0.475)
(-0.925 -0.125 -0.475)
(-0.875 -0.125 -0.475)
(-0.825 -0.125 -0.475)
(-0.775 -0.125 -0.475)
(-0.725 -0.125 -0.475)
(-0.675 -0.125 -0.475)
(-0.625 -0.125 -0.475)
(-0.575 -0.125 -0.475)
(-0.525 -0.125 -0.475)
(-0.475 -0.125 -0.475)
(-0.425 -0.125 -0.475)
(-0.375 -0.125 -0.475)
(-0.325 -0.125 -0.475)
(-0.275 -0.125 -0.475)
(-0.225 -0.125 -0.475)
(-0.175 -0.125 -0.475)
(-0.125 -0.125 -0.475)
(-0.075 -0.125 -0.475)
(-0.025 -0.125 -0.475)
(0.025 -0.125 -0.475)
(0.075 -0.125 -0.475)
(0.125 -0.125 -0.475)
(0.175 -0.125 -0.475)
(0.225 -0.125 -0.475)
(0.275 -0.125 -0.475)
(0.325 -0.125 -0.475)
(0.375 -0.125 -0.475)
(0.425 -0.125 -0.475)
(0.475 -0.125 -0.475)
(-2.475 -0.075 -0.475)
(-2.425 -0.075 -0.475)
(-2.375 -0.075 -0.475)
(-2.325 -0.075 -0.475)
(-2.275 -0.075 -0.475)
(-2.225 -0.075 -0.475)
(-2.175 -0.075 -0.475)
(-2.125 -0.075 -0.475)
(-2.075 -0.075 -0.475)
(-2.025 -0.075 -0.475)
(-1.975 -0.075 -0.475)
(-1.925 -0.075 -0.475)
(-1.875 -0.075 -0.475)
(-1.825 -0.075 -0.475)
(-1.775 -0.075 -0.475)
(-1.725 -0.075 -0.475)
(-1.675 -0.075 -0.475)
(-1.625 -0.075 -0.475)
(-1.575 -0.075 -0.475)
(-1.525 -0.075 -0.475)
(-1.475 -0.075 -0.475)
(-1.425 -0.075 -0.475)
(-1.375 -0.075 -0.475)
(-1.325 -0.075 -0.475)
(-1.275 -0.075 -0.475)
(-1.225 -0.075 -0.475)
(-1.175 -0.075 -0.475)
(-1.125 -0.075 -0.475)
(-1.075 -0.075 -0.475)
(-1.025 -0.075 -0.475)
(-0.975 -0.075 -0.475)
(-0.925 -0.075 -0.475)
(-0.875 -0.075 -0.475)
(-0.825 -0.075 -0.475)
(-0.775 -0.075 -0.475)
(-0.725 -0.075 -0.475)
(-0.675 -0.075 -0.475)
(-0.625 -0.075 -0.475)
(-0.575 -0.075 -0.475)
(-0.525 -0.075 -0.475)
(-0.475 -0.075 -0.475)
(-0.425 -0.075 -0.475)
(-0.375 -0.075 -0.475)
(-0.325 -0.075 -0.475)
(-0.275 -0.075 -0.475)
(-0.225 -0.075 -0.475)
(-0.175 -0.075 -0.475)
(-0.125 -0.075 -0.475)
(-0.075 -0.075 -0.475)
(-0.025 -0.075 -0.475)
(0.025 -0.075 -0.475)
(0.075 -0.075 -0.475)
(0.125 -0.075 -0.475)
(0.175 -0.075 -0.475)
(0.225 -0.075 -0.475)
(0.275 -0.075 -0.475)
(0.325 -0.075 -0.475)
(0.375 -0.075 -0.475)
(0.425 -0.075 -0.475)
(0.475 -0.075 -0.475)
(-2.475 -0.025 -0.475)
(-2.425 -0.025 -0.475)
(-2.375 -0.025 -0.475)
(-2.325 -0.025 -0.475)
(-2.275 -0.025 -0.475)
(-2.225 -0.025 -0.475)
(-2.175 -0.025 -0.475)
(-2.125 -0.025 -0.475)
(-2.075 -0.025 -0.475)
(-2.025 -0.025 -0.475)
(-1.975 -0.025 -0.475)
(-1.925 -0.025 -0.475)
(-1.875 -0.025 -0.475)
(-1.825 -0.025 -0.475)
(-1.775 -0.025 -0.475)
(-1.725 -0.025 -0.475)
(-1.675 -0.025 -0.475)
(-1.625 -0.025 -0.475)
(-1.575 -0.025 -0.475)
(-1.525 -0.025 -0.475)
(-1.475 -0.025 -0.475)
(-1.425 -0.025 -0.475)
(-1.375 -0.025 -0.475)
(-1.325 -0.025 -0.475)
(-1.275 -0.025 -0.475)
(-1.225 -0.025 -0.475)
(-1.175 -0.025 -0.475)
(-1.125 -0.025 -0.475)
(-1.075 -0.025 -0.475)
(-1.025 -0.025 -0.475)
(-0.975 -0.025 -0.475)
(-0.925 -0.025 -0.475)
(-0.875 -0.025 -0.475)
(-0.825 -0.025 -0.475)
(-0.775 -0.025 -0.475)
(-0.725 -0.025 -0.475)
(-0.675 -0.025 -0.475)
(-0.625 -0.025 -0.475)
(-0.575 -0.025 -0.475)
(-0.525 -0.025 -0.475)
(-0.475 -0.025 -0.475)
(-0.425 -0.025 -0.475)
(-0.375 -0.025 -0.475)
(-0.325 -0.025 -0.475)
(-0.275 -0.025 -0.475)
(-0.225 -0.025 -0.475)
(-0.175 -0.025 -0.475)
(-0.125 -0.025 -0.475)
(-0.075 -0.025 -0.475)
(-0.025 -0.025 -0.475)
(0.025 -0.025 -0.475)
(0.075 -0.025 -0.475)
(0.125 -0.025 -0.475)
(0.175 -0.025 -0.475)
(0.225 -0.025 -0.475)
(0.275 -0.025 -0.475)
(0.325 -0.025 -0.475)
(0.375 -0.025 -0.475)
(0.425 -0.025 -0.475)
(0.475 -0.025 -0.475)
(-2.475 0.025 -0.475)
(-2.425 0.025 -0.475)
(-2.375 0.025 -0.475)
(-2.325 0.025 -0.475)
(-2.275 0.025 -0.475)
(-2.225 0.025 -0.475)
(-2.175 0.025 -0.475)
(-2.125 0.025 -0.475)
(-2.075 0.025 -0.475)
(-2.025 0.025 -0.475)
(-1.975 0.025 -0.475)
(-1.925 0.025 -0.475)
(-1.875 0.025 -0.475)
(-1.825 0.025 -0.475)
(-1.775 0.025 -0.475)
(-1.725 0.025 -0.475)
(-1.675 0.025 -0.475)
(-1.625 0.025 -0.475)
(-1.575 0.025 -0.475)
(-1.525 0.025 -0.475)
(-1.475 0.025 -0.475)
(-1.425 0.025 -0.475)
(-1.375 0.025 -0.475)
(-1.325 0.025 -0.475)
(-1.275 0.025 -0.475)
(-1.225 0.025 -0.475)
(-1.175 0.025 -0.475)
(-1.125 0.025 -0.475)
(-1.075 0.025 -0.475)
(-1.025 0.025 -0.475)
(-0.975 0.025 -0.475)
(-0.925 0.025 -0.475)
(-0.875 0.025 -0.475)
(-0.825 0.025 -0.475)
(-0.775 0.025 -0.475)
(-0.725 0.025 -0.475)
(-0.675 0.025 -0.475)
(-0.625 0.025 -0.475)
(-0.575 0.025 -0.475)
(-0.525 0.025 -0.475)
(-0.475 0.025 -0.475)
(-0.425 0.025 -0.475)
(-0.375 0.025 -0.475)
(-0.325 0.025 -0.475)
(-0.275 0.025 -0.475)
(-0.225 0.025 -0.475)
(-0.175 0.025 -0.475)
(-0.125 0.025 -0.475)
(-0.075 0.025 -0.475)
(-0.025 0.025 -0.475)
(0.025 0.025 -0.475)
(0.075 0.025 -0.475)
(0.125 0.025 -0.475)
(0.175 0.025 -0.475)
(0.225 0.025 -0.475)
(0.275 0.025 -0.475)
(0.325 0.025 -0.475)
(0.375 0.025 -0.475)
(0.425 0.025 -0.475)
(0.475 0.025 -0.475)
(-2.475 0.075 -0.475)
(-2.425 0.075 -0.475)
(-2.375 0.075 -0.475)
(-2.325 0.075 -0.475)
(-2.275 0.075 -0.475)
(-2.225 0.075 -0.475)
(-2.175 0.075 -0.475)
(-2.125 0.075 -0.475)
(-2.075 0.075 -0.475)
(-2.025 0.075 -0.475)
(-1.975 0.075 -0.475)
(-1.925 0.075 -0.475)
(-1.875 0.075 -0.475)
(-1.825 0.075 -0.475)
(-1.775 0.075 -0.475)
(-1.725 0.075 -0.475)
(-1.675 0.075 -0.475)
(-1.625 0.075 -0.475)
(-1.575 0.075 -0.475)
(-1.525 0.075 -0.475)
(-1.475 0.075 -0.475)
(-1.425 0.075 -0.475)
(-1.375 0.075 -0.475)
(-1.325 0.075 -0.475)
(-1.275 0.075 -0.475)
(-1.225 0.075 -0.475)
(-1.175 0.075 -0.475)
(-1.125 0.075 -0.475)
(-1.075 0.075 -0.475)
(-1.025 0.075 -0.475)
(-0.975 0.075 -0.475)
(-0.925 0.075 -0.475)
(-0.875 0.075 -0.475)
(-0.825 0.075 -0.475)
(-0.775 0.075 -0.475)
(-0.725 0.075 -0.475)
(-0.675 0.075 -0.475)
(-0.625 0.075 -0.475)
(-0.575 0.075 -0.475)
(-0.525 0.075 -0.475)
(-0.475 0.075 -0.475)
(-0.425 0.075 -0.475)
(-0.375 0.075 -0.475)
(-0.325 0.075 -0.475)
(-0.275 0.075 -0.475)
(-0.225 0.075 -0.475)
(-0.175 0.075 -0.475)
(-0.125 0.075 -0.475)
(-0.075 0.075 -0.475)
(-0.025 0.075 -0.475)
(0.025 0.075 -0.475)
(0.075 0.075 -0.475)
(0.125 0.075 -0.475)
(0.175 0.075 -0.475)
(0.225 0.075 -0.475)
(0.275 0.075 -0.475)
(0.325 0.075 -0.475)
(0.375 0.075 -0.475)
(0.425 0.075 -0.475)
(0.475 0.075 -0.475)
(-2.475 0.125 -0.475)
(-2.425 0.125 -0.475)
(-2.375 0.125 -0.475)
(-2.325 0.125 -0.475)
(-2.275 0.125 -0.475)
(-2.225 0.125 -0.475)
(-2.175 0.125 -0.475)
(-2.125 0.125 -0.475)
(-2.075 0.125 -0.475)
(-2.025 0.125 -0.475)
(-1.975 0.125 -0.475)
(-1.925 0.125 -0.475)
(-1.875 0.125 -0.475)
(-1.825 0.125 -0.475)
(-1.775 0.125 -0.475)
(-1.725 0.125 -0.475)
(-1.675 0.125 -0.475)
(-1.625 0.125 -0.475)
(-1.575 0.125 -0.475)
(-1.525 0.125 -0.475)
(-1.475 0.125 -0.475)
(-1.425 0.125 -0.475)
(-1.375 0.125 -0.475)
(-1.325 0.125 -0.475)
(-1.275 0.125 -0.475)
(-1.225 0.125 -0.475)
(-1.175 0.125 -0.475)
(-1.125 0.125 -0.475)
(-1.075 0.125 -0.475)
(-1.025 0.125 -0.475)
(-0.975 0.125 -0.475)
(-0.925 0.125 -0.475)
(-0.875 0.125 -0.475)
(-0.825 0.125 -0.475)
(-0.775 0.125 -0.475)
(-0.725 0.125 -0.475)
(-0.675 0.125 -0.475)
(-0.625 0.125 -0.475)
(-0.575 0.125 -0.475)
(-0.525 0.125 -0.475)
(-0.475 0.125 -0.475)
(-0.425 0.125 -0.475)
(-0.375 0.125 -0.475)
(-0.325 0.125 -0.475)
(-0.275 0.125 -0.475)
(-0.225 0.125 -0.475)
(-0.175 0.125 -0.475)
(-0.125 0.125 -0.475)
(-0.075 0.125 -0.475)
(-0.025 0.125 -0.475)
(0.025 0.125 -0.475)
(0.075 0.125 -0.475)
(0.125 0.125 -0.475)
(0.175 0.125 -0.475)
(0.225 0.125 -0.475)
(0.275 0.125 -0.475)
(0.325 0.125 -0.475)
(0.375 0.125 -0.475)
(0.425 0.125 -0.475)
(0.475 0.125 -0.475)
(-2.475 0.175 -0.475)
(-2.425 0.175 -0.475)
(-2.375 0.175 -0.475)
(-2.325 0.175 -0.475)
(-2.275 0.175 -0.475)
(-2.225 0.175 -0.475)
(-2.175 0.175 -0.475)
(-2.125 0.175 -0.475)
(-2.075 0.175 -0.475)
(-2.025 0.175 -0.475)
(-1.975 0.175 -0.475)
(-1.925 0.175 -0.475)
(-1.875 0.175 -0.475)
(-1.825 0.175 -0.475)
(-1.775 0.175 -0.475)
(-1.725 0.175 -0.475)
(-1.675 0.175 -0.475)
(-1.625 0.175 -0.475)
(-1.575 0.175 -0.475)
(-1.525 0.175 -0.475)
(-1.475 0.175 -0.475)
(-1.425 0.175 -0.475)
(-1.375 0.175 -0.475)
(-1.325 0.175 -0.475)
(-1.275 0.175 -0.475)
(-1.225 0.175 -0.475)
(-1.175 0.175 -0.475)
(-1.125 0.175 -0.475)
(-1.075 0.175 -0.475)
(-1.025 0.175 -0.475)
(-0.975 0.175 -0.475)
(-0.925 0.175 -0.475)
(-0.875 0.175 -0.475)
(-0.825 0.175 -0.475)
(-0.775 0.175 -0.475)
(-0.725 0.175 -0.475)
(-0.675 0.175 -0.475)
(-0.625 0.175 -0.475)
(-0.575 0.175 -0.475)
(-0.525 0.175 -0.475)
(-0.475 0.175 -0.475)
(-0.425 0.175 -0.475)
(-0.375 0.175 -0.475)
(-0.325 0.175 -0.475)
(-0.275 0.175 -0.475)
(-0.225 0.175 -0.475)
(-0.175 0.175 -0.475)
(-0.125 0.175 -0.475)
(-0.075 0.175 -0.475)
(-0.025 0.175 -0.475)
(0.025 0.175 -0.475)
(0.075 0.175 -0.475)
(0.125 0.175 -0.475)
(0.175 0.175 -0.475)
(0.225 0.175 -0.475)
(0.275 0.175 -0.475)
(0.325 0.175 -0.475)
(0.375 0.175 -0.475)
(0.425 0.175 -0.475)
(0.475 0.175 -0.475)
(-2.475 0.225 -0.475)
(-2.425 0.225 -0.475)
(-2.375 0.225 -0.475)
(-2.325 0.225 -0.475)
(-2.275 0.225 -0.475)
(-2.225 0.225 -0.475)
(-2.175 0.225 -0.475)
(-2.125 0.225 -0.475)
(-2.075 0.225 -0.475)
(-2.025 0.225 -0.475)
(-1.975 0.225 -0.475)
(-1.925 0.225 -0.475)
(-1.875 0.225 -0.475)
(-1.825 0.225 -0.475)
(-1.775 0.225 -0.475)
(-1.725 0.225 -0.475)
(-1.675 0.225 -0.475)
(-1.625 0.225 -0.475)
(-1.575 0.225 -0.475)
(-1.525 0.225 -0.475)
(-1.475 0.225 -0.475)
(-1.425 0.225 -0.475)
(-1.375 0.225 -0.475)
(-1.325 0.225 -0.475)
(-1.275 0.225 -0.475)
(-1.225 0.225 -0.475)
(-1.175 0.225 -0.475)
(-1.125 0.225 -0.475)
(-1.075 0.225 -0.475)
(-1.025 0.225 -0.475)
(-0.975 0.225 -0.475)
(-0.925 0.225 -0.475)
(-0.875 0.225 -0.475)
(-0.825 0.225 -0.475)
(-0.775 0.225 -0.475)
(-0.725 0.225 -0.475)
(-0.675 0.225 -0.475)
(-0.625 0.225 -0.475)
(-0.575 0.225 -0.475)
(-0.525 0.225 -0.475)
(-0.475 0.225 -0.475)
(-0.425 0.225 -0.475)
(-0.375 0.225 -0.475)
(-0.325 0.225 -0.475)
(-0.275 0.225 -0.475)
(-0.225 0.225 -0.475)
(-0.175 0.225 -0.475)
(-0.125 0.225 -0.475)
(-0.075 0.225 -0.475)
(-0.025 0.225 -0.475)
(0.025 0.225 -0.475)
(0.075 0.225 -0.475)
(0.125 0.225 -0.475)
(0.175 0.225 -0.475)
(0.225 0.225 -0.475)
(0.275 0.225 -0.475)
(0.325 0.225 -0.475)
(0.375 0.225 -0.475)
(0.425 0.225 -0.475)
(0.475 0.225 -0.475)
(-2.475 0.275 -0.475)
(-2.425 0.275 -0.475)
(-2.375 0.275 -0.475)
(-2.325 0.275 -0.475)
(-2.275 0.275 -0.475)
(-2.225 0.275 -0.475)
(-2.175 0.275 -0.475)
(-2.125 0.275 -0.475)
(-2.075 0.275 -0.475)
(-2.025 0.275 -0.475)
(-1.975 0.275 -0.475)
(-1.925 0.275 -0.475)
(-1.875 0.275 -0.475)
(-1.825 0.275 -0.475)
(-1.775 0.275 -0.475)
(-1.725 0.275 -0.475)
(-1.675 0.275 -0.475)
(-1.625 0.275 -0.475)
(-1.575 0.275 -0.475)
(-1.525 0.275 -0.475)
(-1.475 0.275 -0.475)
(-1.425 0.275 -0.475)
(-1.375 0.275 -0.475)
(-1.325 0.275 -0.475)
(-1.275 0.275 -0.475)
(-1.225 0.275 -0.475)
(-1.175 0.275 -0.475)
(-1.125 0.275 -0.475)
(-1.075 0.275 -0.475)
(-1.025 0.275 -0.475)
(-0.975 0.275 -0.475)
(-0.925 0.275 -0.475)
(-0.875 0.275 -0.475)
(-0.825 0.275 -0.475)
(-0.775 0.275 -0.475)
(-0.725 0.275 -0.475)
(-0.675 0.275 -0.475)
(-0.625 0.275 -0.475)
(-0.575 0.275 -0.475)
(-0.525 0.275 -0.475)
(-0.475 0.275 -0.475)
(-0.425 0.275 -0.475)
(-0.375 0.275 -0.475)
(-0.325 0.275 -0.475)
(-0.275 0.275 -0.475)
(-0.225 0.275 -0.475)
(-0.175 0.275 -0.475)
(-0.125 0.275 -0.475)
(-0.075 0.275 -0.475)
(-0.025 0.275 -0.475)
(0.025 0.275 -0.475)
(0.075 0.275 -0.475)
(0.125 0.275 -0.475)
(0.175 0.275 -0.475)
(0.225 0.275 -0.475)
(0.275 0.275 -0.475)
(0.325 0.275 -0.475)
(0.375 0.275 -0.475)
(0.425 0.275 -0.475)
(0.475 0.275 -0.475)
(-2.475 0.325 -0.475)
(-2.425 0.325 -0.475)
(-2.375 0.325 -0.475)
(-2.325 0.325 -0.475)
(-2.275 0.325 -0.475)
(-2.225 0.325 -0.475)
(-2.175 0.325 -0.475)
(-2.125 0.325 -0.475)
(-2.075 0.325 -0.475)
(-2.025 0.325 -0.475)
(-1.975 0.325 -0.475)
(-1.925 0.325 -0.475)
(-1.875 0.325 -0.475)
(-1.825 0.325 -0.475)
(-1.775 0.325 -0.475)
(-1.725 0.325 -0.475)
(-1.675 0.325 -0.475)
(-1.625 0.325 -0.475)
(-1.575 0.325 -0.475)
(-1.525 0.325 -0.475)
(-1.475 0.325 -0.475)
(-1.425 0.325 -0.475)
(-1.375 0.325 -0.475)
(-1.325 0.325 -0.475)
(-1.275 0.325 -0.475)
(-1.225 0.325 -0.475)
(-1.175 0.325 -0.475)
(-1.125 0.325 -0.475)
(-1.075 0.325 -0.475)
(-1.025 0.325 -0.475)
(-0.975 0.325 -0.475)
(-0.925 0.325 -0.475)
(-0.875 0.325 -0.475)
(-0.825 0.325 -0.475)
(-0.775 0.325 -0.475)
(-0.725 0.325 -0.475)
(-0.675 0.325 -0.475)
(-0.625 0.325 -0.475)
(-0.575 0.325 -0.475)
(-0.525 0.325 -0.475)
(-0.475 0.325 -0.475)
(-0.425 0.325 -0.475)
(-0.375 0.325 -0.475)
(-0.325 0.325 -0.475)
(-0.275 0.325 -0.475)
(-0.225 0.325 -0.475)
(-0.175 0.325 -0.475)
(-0.125 0.325 -0.475)
(-0.075 0.325 -0.475)
(-0.025 0.325 -0.475)
(0.025 0.325 -0.475)
(0.075 0.325 -0.475)
(0.125 0.325 -0.475)
(0.175 0.325 -0.475)
(0.225 0.325 -0.475)
(0.275 0.325 -0.475)
(0.325 0.325 -0.475)
(0.375 0.325 -0.475)
(0.425 0.325 -0.475)
(0.475 0.325 -0.475)
(-2.475 0.375 -0.475)
(-2.425 0.375 -0.475)
(-2.375 0.375 -0.475)
(-2.325 0.375 -0.475)
(-2.275 0.375 -0.475)
(-2.225 0.375 -0.475)
(-2.175 0.375 -0.475)
(-2.125 0.375 -0.475)
(-2.075 0.375 -0.475)
(-2.025 0.375 -0.475)
(-1.975 0.375 -0.475)
(-1.925 0.375 -0.475)
(-1.875 0.375 -0.475)
(-1.825 0.375 -0.475)
(-1.775 0.375 -0.475)
(-1.725 0.375 -0.475)
(-1.675 0.375 -0.475)
(-1.625 0.375 -0.475)
(-1.575 0.375 -0.475)
(-1.525 0.375 -0.475)
(-1.475 0.375 -0.475)
(-1.425 0.375 -0.475)
(-1.375 0.375 -0.475)
(-1.325 0.375 -0.475)
(-1.275 0.375 -0.475)
(-1.225 0.375 -0.475)
(-1.175 0.375 -0.475)
(-1.125 0.375 -0.475)
(-1.075 0.375 -0.475)
(-1.025 0.375 -0.475)
(-0.975 0.375 -0.475)
(-0.925 0.375 -0.475)
(-0.875 0.375 -0.475)
(-0.825 0.375 -0.475)
(-0.775 0.375 -0.475)
(-0.725 0.375 -0.475)
(-0.675 0.375 -0.475)
(-0.625 0.375 -0.475)
(-0.575 0.375 -0.475)
(-0.525 0.375 -0.475)
(-0.475 0.375 -0.475)
(-0.425 0.375 -0.475)
(-0.375 0.375 -0.475)
(-0.325 0.375 -0.475)
(-0.275 0.375 -0.475)
(-0.225 0.375 -0.475)
(-0.175 0.375 -0.475)
(-0.125 0.375 -0.475)
(-0.075 0.375 -0.475)
(-0.025 0.375 -0.475)
(0.025 0.375 -0.475)
(0.075 0.375 -0.475)
(0.125 0.375 -0.475)
(0.175 0.375 -0.475)
(0.225 0.375 -0.475)
(0.275 0.375 -0.475)
(0.325 0.375 -0.475)
(0.375 0.375 -0.475)
(0.425 0.375 -0.475)
(0.475 0.375 -0.475)
(-2.475 0.425 -0.475)
(-2.425 0.425 -0.475)
(-2.375 0.425 -0.475)
(-2.325 0.425 -0.475)
(-2.275 0.425 -0.475)
(-2.225 0.425 -0.475)
(-2.175 0.425 -0.475)
(-2.125 0.425 -0.475)
(-2.075 0.425 -0.475)
(-2.025 0.425 -0.475)
(-1.975 0.425 -0.475)
(-1.925 0.425 -0.475)
(-1.875 0.425 -0.475)
(-1.825 0.425 -0.475)
(-1.775 0.425 -0.475)
(-1.725 0.425 -0.475)
(-1.675 0.425 -0.475)
(-1.625 0.425 -0.475)
(-1.575 0.425 -0.475)
(-1.525 0.425 -0.475)
(-1.475 0.425 -0.475)
(-1.425 0.425 -0.475)
(-1.375 0.425 -0.475)
(-1.325 0.425 -0.475)
(-1.275 0.425 -0.475)
(-1.225 0.425 -0.475)
(-1.175 0.425 -0.475)
(-1.125 0.425 -0.475)
(-1.075 0.425 -0.475)
(-1.025 0.425 -0.475)
(-0.975 0.425 -0.475)
(-0.925 0.425 -0.475)
(-0.875 0.425 -0.475)
(-0.825 0.425 -0.475)
(-0.775 0.425 -0.475)
(-0.725 0.425 -0.475)
(-0.675 0.425 -0.475)
(-0.625 0.425 -0.475)
(-0.575 0.425 -0.475)
(-0.525 0.425 -0.475)
(-0.475 0.425 -0.475)
(-0.425 0.425 -0.475)
(-0.375 0.425 -0.475)
(-0.325 0.425 -0.475)
(-0.275 0.425 -0.475)
(-0.225 0.425 -0.475)
(-0.175 0.425 -0.475)
(-0.125 0.425 -0.475)
(-0.075 0.425 -0.475)
(-0.025 0.425 -0.475)
(0.025 0.425 -0.475)
(0.075 0.425 -0.475)
(0.125 0.425 -0.475)
(0.175 0.425 -0.475)
(0.225 0.425 -0.475)
(0.275 0.425 -0.475)
(0.325 0.425 -0.475)
(0.375 0.425 -0.475)
(0.425 0.425 -0.475)
(0.475 0.425 -0.475)
(-2.475 0.475 -0.475)
(-2.425 0.475 -0.475)
(-2.375 0.475 -0.475)
(-2.325 0.475 -0.475)
(-2.275 0.475 -0.475)
(-2.225 0.475 -0.475)
(-2.175 0.475 -0.475)
(-2.125 0.475 -0.475)
(-2.075 0.475 -0.475)
(-2.025 0.475 -0.475)
(-1.975 0.475 -0.475)
(-1.925 0.475 -0.475)
(-1.875 0.475 -0.475)
(-1.825 0.475 -0.475)
(-1.775 0.475 -0.475)
(-1.725 0.475 -0.475)
(-1.675 0.475 -0.475)
(-1.625 0.475 -0.475)
(-1.575 0.475 -0.475)
(-1.525 0.475 -0.475)
(-1.475 0.475 -0.475)
(-1.425 0.475 -0.475)
(-1.375 0.475 -0.475)
(-1.325 0.475 -0.475)
(-1.275 0.475 -0.475)
(-1.225 0.475 -0.475)
(-1.175 0.475 -0.475)
(-1.125 0.475 -0.475)
(-1.075 0.475 -0.475)
(-1.025 0.475 -0.475)
(-0.975 0.475 -0.475)
(-0.925 0.475 -0.475)
(-0.875 0.475 -0.475)
(-0.825 0.475 -0.475)
(-0.775 0.475 -0.475)
(-0.725 0.475 -0.475)
(-0.675 0.475 -0.475)
(-0.625 0.475 -0.475)
(-0.575 0.475 -0.475)
(-0.525 0.475 -0.475)
(-0.475 0.475 -0.475)
(-0.425 0.475 -0.475)
(-0.375 0.475 -0.475)
(-0.325 0.475 -0.475)
(-0.275 0.475 -0.475)
(-0.225 0.475 -0.475)
(-0.175 0.475 -0.475)
(-0.125 0.475 -0.475)
(-0.075 0.475 -0.475)
(-0.025 0.475 -0.475)
(0.025 0.475 -0.475)
(0.075 0.475 -0.475)
(0.125 0.475 -0.475)
(0.175 0.475 -0.475)
(0.225 0.475 -0.475)
(0.275 0.475 -0.475)
(0.325 0.475 -0.475)
(0.375 0.475 -0.475)
(0.425 0.475 -0.475)
(0.475 0.475 -0.475)
(-2.475 -0.475 -0.425)
(-2.425 -0.475 -0.425)
(-2.375 -0.475 -0.425)
(-2.325 -0.475 -0.425)
(-2.275 -0.475 -0.425)
(-2.225 -0.475 -0.425)
(-2.175 -0.475 -0.425)
(-2.125 -0.475 -0.425)
(-2.075 -0.475 -0.425)
(-2.025 -0.475 -0.425)
(-1.975 -0.475 -0.425)
(-1.925 -0.475 -0.425)
(-1.875 -0.475 -0.425)
(-1.825 -0.475 -0.425)
(-1.775 -0.475 -0.425)
(-1.725 -0.475 -0.425)
(-1.675 -0.475 -0.425)
(-1.625 -0.475 -0.425)
(-1.575 -0.475 -0.425)
(-1.525 -0.475 -0.425)
(-1.475 -0.475 -0.425)
(-1.425 -0.475 -0.425)
(-1.375 -0.475 -0.425)
(-1.325 -0.475 -0.425)
(-1.275 -0.475 -0.425)
(-1.225 -0.475 -0.425)
(-1.175 -0.475 -0.425)
(-1.125 -0.475 -0.425)
(-1.075 -0.475 -0.425)
(-1.025 -0.475 -0.425)
(-0.975 -0.475 -0.425)
(-0.925 -0.475 -0.425)
(-0.875 -0.475 -0.425)
(-0.825 -0.475 -0.425)
(-0.775 -0.475 -0.425)
(-0.725 -0.475 -0.425)
(-0.675 -0.475 -0.425)
(-0.625 -0.475 -0.425)
(-0.575 -0.475 -0.425)
(-0.525 -0.475 -0.425)
(-0.475 -0.475 -0.425)
(-0.425 -0.475 -0.425)
(-0.375 -0.475 -0.425)
(-0.325 -0.475 -0.425)
(-0.275 -0.475 -0.425)
(-0.225 -0.475 -0.425)
(-0.175 -0.475 -0.425)
(-0.125 -0.475 -0.425)
(-0.075 -0.475 -0.425)
(-0.025 -0.475 -0.425)
(0.025 -0.475 -0.425)
(0.075 -0.475 -0.425)
(0.125 -0.475 -0.425)
(0.175 -0.475 -0.425)
(0.225 -0.475 -0.425)
(0.275 -0.475 -0.425)
(0.325 -0.475 -0.425)
(0.375 -0.475 -0.425)
(0.425 -0.475 -0.425)
(0.475 -0.475 -0.425)
(-2.475 -0.425 -0.425)
(-2.425 -0.425 -0.425)
(-2.375 -0.425 -0.425)
(-2.325 -0.425 -0.425)
(-2.275 -0.425 -0.425)
(-2.225 -0.425 -0.425)
(-2.175 -0.425 -0.425)
(-2.125 -0.425 -0.425)
(-2.075 -0.425 -0.425)
(-2.025 -0.425 -0.425)
(-1.975 -0.425 -0.425)
(-1.925 -0.425 -0.425)
(-1.875 -0.425 -0.425)
(-1.825 -0.425 -0.425)
(-1.775 -0.425 -0.425)
(-1.725 -0.425 -0.425)
(-1.675 -0.425 -0.425)
(-1.625 -0.425 -0.425)
(-1.575 -0.425 -0.425)
(-1.525 -0.425 -0.425)
(-1.475 -0.425 -0.425)
(-1.425 -0.425 -0.425)
(-1.375 -0.425 -0.425)
(-1.325 -0.425 -0.425)
(-1.275 -0.425 -0.425)
(-1.225 -0.425 -0.425)
(-1.175 -0.425 -0.425)
(-1.125 -0.425 -0.425)
(-1.075 -0.425 -0.425)
(-1.025 -0.425 -0.425)
(-0.975 -0.425 -0.425)
(-0.925 -0.425 -0.425)
(-0.875 -0.425 -0.425)
(-0.825 -0.425 -0.425)
(-0.775 -0.425 -0.425)
(-0.725 -0.425 -0.425)
(-0.675 -0.425 -0.425)
(-0.625 -0.425 -0.425)
(-0.575 -0.425 -0.425)
(-0.525 -0.425 -0.425)